
     Program BANDS v.6.6 starts on 23Jun2022 at 12: 6:31 

     This program is part of the open-source Quantum ESPRESSO suite
     for quantum simulation of materials; please cite
         "P. Giannozzi et al., J. Phys.:Condens. Matter 21 395502 (2009);
         "P. Giannozzi et al., J. Phys.:Condens. Matter 29 465901 (2017);
          URL http://www.quantum-espresso.org", 
     in publications or presentations arising from this work. More details at
     http://www.quantum-espresso.org/quote

     Parallel version (MPI), running on    40 processors

     MPI processes distributed on     1 nodes
     R & G space division:  proc/nbgrp/npool/nimage =      40
     Fft bands division:     nmany     =       1

     Reading xml data from directory:

     ./rbbr.save/
     file Rb.pbe-spn-kjpaw_psl.1.0.0.UPF: wavefunction(s)  4S renormalized
     file Br.pbe-n-kjpaw_psl.1.0.0.UPF: wavefunction(s)  4S 4P renormalized

     IMPORTANT: XC functional enforced from input :
     Exchange-correlation= PBE
                           (   1   4   3   4   0   0   0)
     Any further DFT definition will be discarded
     Please, verify this is what you really want

 
     Parallelization info
     --------------------
     sticks:   dense  smooth     PW     G-vecs:    dense   smooth      PW
     Min          39      39     11                 1049     1049     167
     Max          40      40     12                 1054     1054     170
     Sum        1597    1597    475                42087    42087    6735
 

     Check: negative core charge=   -0.000002
     Reading collected, re-writing distributed wavefunctions
     high-symmetry point:  0.0000 0.0000 0.0000   x coordinate   0.0000
     high-symmetry point:  1.0000 1.0000 0.0000   x coordinate   1.4142

     Plottable bands (eV) written to file seg2.dat.gnu
     Bands written to file seg2.dat

 **************************************************************************

                    xk=(   0.00000,   0.00000,   0.00000  )

     point group O_h (m-3m) 
     there are 10 classes
     the character table:

       E     8C3   3C2   6C4   6C2'  i     8S6   3s_h  6S4   6s_d 
A_1g   1.00  1.00  1.00  1.00  1.00  1.00  1.00  1.00  1.00  1.00
A_2g   1.00  1.00  1.00 -1.00 -1.00  1.00  1.00  1.00 -1.00 -1.00
E_g    2.00 -1.00  2.00  0.00  0.00  2.00 -1.00  2.00  0.00  0.00
T_1g   3.00  0.00 -1.00  1.00 -1.00  3.00  0.00 -1.00  1.00 -1.00
T_2g   3.00  0.00 -1.00 -1.00  1.00  3.00  0.00 -1.00 -1.00  1.00
A_1u   1.00  1.00  1.00  1.00  1.00 -1.00 -1.00 -1.00 -1.00 -1.00
A_2u   1.00  1.00  1.00 -1.00 -1.00 -1.00 -1.00 -1.00  1.00  1.00
E_u    2.00 -1.00  2.00  0.00  0.00 -2.00  1.00 -2.00  0.00  0.00
T_1u   3.00  0.00 -1.00  1.00 -1.00 -3.00  0.00  1.00 -1.00  1.00
T_2u   3.00  0.00 -1.00 -1.00  1.00 -3.00  0.00  1.00  1.00 -1.00

     the symmetry operations in each class and the name of the first element:

     E        1
                                                                 
     8C3     17   19   20   18   24   21   22   23
                                                                 
     3C2      2    4    3
                                                                 
     6C4      7    8   15   16   12   11
                                                                 
     6C2'     5    6   14   13   10    9
                                                                 
     i       25
                                                                 
     8S6     41   43   44   42   48   45   46   47
                                                                 
     3s_h    26   28   27
                                                                 
     6S4     31   32   39   40   36   35
                                                                 
     6s_d    29   30   38   37   34   33
                                                                 

     Band symmetry, O_h (m-3m)  point group:

     e(  1 -  1) =    -23.76974  eV     1   --> A_1g G_1   G_1+
     e(  2 -  2) =    -11.31354  eV     1   --> A_1g G_1   G_1+
     e(  3 -  5) =     -7.83633  eV     3   --> T_1u G_15  G_4-
     e(  6 -  8) =      0.80296  eV     3   --> T_1u G_15  G_4-
     e(  9 -  9) =      4.99689  eV     1   --> A_1g G_1   G_1+
     e( 10 - 12) =      8.05863  eV     3   --> T_2g G_25' G_5+
     e( 13 - 14) =      8.90028  eV     2   --> E_g  G_12  G_3+
     e( 15 - 15) =     11.61627  eV     1   --> A_2u G_2'  G_2-
     e( 16 - 18) =     16.12466  eV     3   --> T_2g G_25' G_5+
     e( 19 - 21) =     16.25698  eV     3   --> T_1u G_15  G_4-
     e( 22 - 23) =     18.93986  eV     2   --> E_g  G_12  G_3+
     e( 24 - 24) =     19.01394  eV     1   -->   ?

 **************************************************************************

 **************************************************************************

                    xk=(   0.01000,   0.01000,   0.00000  )

     point group C_2v (mm2) 
     there are  4 classes
     the character table:

       E     C2    s_v   s_v' 
A_1    1.00  1.00  1.00  1.00
A_2    1.00  1.00 -1.00 -1.00
B_1    1.00 -1.00  1.00 -1.00
B_2    1.00 -1.00 -1.00  1.00

     the symmetry operations in each class and the name of the first element:

     E        1
                                                                 
     C2       2
                                                                 
     s_v      3
                                                                 
     s_v'     4
                                                                 

     Band symmetry, C_2v (mm2)  point group:

     e(  1 -  1) =    -23.76974  eV     1   --> A_1  D_1  S_1  
     e(  2 -  2) =    -11.31356  eV     1   --> A_1  D_1  S_1  
     e(  3 -  5) =     -7.83635  eV     3   --> A_1  D_1  S_1  
     e(  3 -  5) =     -7.83635  eV     3   --> B_1  D_3  S_3  
     e(  3 -  5) =     -7.83635  eV     3   --> B_2  D_4  S_4  
     e(  6 -  6) =      0.80213  eV     1   --> A_1  D_1  S_1  
     e(  7 -  7) =      0.80270  eV     1   --> B_1  D_3  S_3  
     e(  8 -  8) =      0.80285  eV     1   --> B_2  D_4  S_4  
     e(  9 -  9) =      4.99847  eV     1   --> A_1  D_1  S_1  
     e( 10 - 10) =      8.05784  eV     1   --> B_2  D_4  S_4  
     e( 11 - 11) =      8.05916  eV     1   --> A_2  D_2  S_2  
     e( 12 - 12) =      8.05981  eV     1   --> A_1  D_1  S_1  
     e( 13 - 13) =      8.90092  eV     1   --> A_1  D_1  S_1  
     e( 14 - 14) =      8.90144  eV     1   --> B_1  D_3  S_3  
     e( 15 - 15) =     11.61880  eV     1   --> B_2  D_4  S_4  
     e( 16 - 16) =     16.08409  eV     1   --> A_1  D_1  S_1  
     e( 17 - 17) =     16.08609  eV     1   --> B_2  D_4  S_4  
     e( 18 - 18) =     16.12351  eV     1   --> A_2  D_2  S_2  
     e( 19 - 19) =     16.25358  eV     1   --> B_1  D_3  S_3  
     e( 20 - 20) =     16.29149  eV     1   --> A_1  D_1  S_1  
     e( 21 - 21) =     16.29573  eV     1   --> B_2  D_4  S_4  
     e( 22 - 22) =     18.89856  eV     1   --> B_1  D_3  S_3  
     e( 23 - 23) =     18.92125  eV     1   --> A_1  D_1  S_1  
     e( 24 - 24) =     19.01397  eV     1   --> B_2  D_4  S_4  

 **************************************************************************

 **************************************************************************

                    xk=(   0.02000,   0.02000,   0.00000  )

     Band symmetry, C_2v (mm2)  point group:

     e(  1 -  1) =    -23.76973  eV     1   --> A_1  D_1  S_1  
     e(  2 -  2) =    -11.31361  eV     1   --> A_1  D_1  S_1  
     e(  3 -  3) =     -7.83643  eV     1   --> B_2  D_4  S_4  
     e(  4 -  4) =     -7.83630  eV     1   --> B_1  D_3  S_3  
     e(  5 -  5) =     -7.83620  eV     1   --> A_1  D_1  S_1  
     e(  6 -  6) =      0.79967  eV     1   --> A_1  D_1  S_1  
     e(  7 -  7) =      0.80191  eV     1   --> B_1  D_3  S_3  
     e(  8 -  8) =      0.80252  eV     1   --> B_2  D_4  S_4  
     e(  9 -  9) =      5.00322  eV     1   --> A_1  D_1  S_1  
     e( 10 - 10) =      8.05550  eV     1   --> B_2  D_4  S_4  
     e( 11 - 11) =      8.06076  eV     1   --> A_2  D_2  S_2  
     e( 12 - 12) =      8.06335  eV     1   --> A_1  D_1  S_1  
     e( 13 - 13) =      8.90283  eV     1   --> A_1  D_1  S_1  
     e( 14 - 14) =      8.90494  eV     1   --> B_1  D_3  S_3  
     e( 15 - 15) =     11.62639  eV     1   --> B_2  D_4  S_4  
     e( 16 - 16) =     16.00622  eV     1   --> A_1  D_1  S_1  
     e( 17 - 17) =     16.01576  eV     1   --> B_2  D_4  S_4  
     e( 18 - 18) =     16.12009  eV     1   --> A_2  D_2  S_2  
     e( 19 - 19) =     16.24344  eV     1   --> B_1  D_3  S_3  
     e( 20 - 20) =     16.35123  eV     1   --> A_1  D_1  S_1  
     e( 21 - 21) =     16.36661  eV     1   --> B_2  D_4  S_4  
     e( 22 - 22) =     18.83639  eV     1   --> B_1  D_3  S_3  
     e( 23 - 23) =     18.88286  eV     1   --> A_1  D_1  S_1  
     e( 24 - 24) =     19.01407  eV     1   --> B_2  D_4  S_4  

 **************************************************************************

 **************************************************************************

                    xk=(   0.03000,   0.03000,   0.00000  )

     Band symmetry, C_2v (mm2)  point group:

     e(  1 -  1) =    -23.76970  eV     1   --> A_1  D_1  S_1  
     e(  2 -  2) =    -11.31371  eV     1   --> A_1  D_1  S_1  
     e(  3 -  3) =     -7.83656  eV     1   --> B_2  D_4  S_4  
     e(  4 -  4) =     -7.83627  eV     1   --> B_1  D_3  S_3  
     e(  5 -  5) =     -7.83605  eV     1   --> A_1  D_1  S_1  
     e(  6 -  6) =      0.79558  eV     1   --> A_1  D_1  S_1  
     e(  7 -  7) =      0.80061  eV     1   --> B_1  D_3  S_3  
     e(  8 -  8) =      0.80198  eV     1   --> B_2  D_4  S_4  
     e(  9 -  9) =      5.01112  eV     1   --> A_1  D_1  S_1  
     e( 10 - 10) =      8.05163  eV     1   --> B_2  D_4  S_4  
     e( 11 - 11) =      8.06342  eV     1   --> A_2  D_2  S_2  
     e( 12 - 12) =      8.06926  eV     1   --> A_1  D_1  S_1  
     e( 13 - 13) =      8.90602  eV     1   --> A_1  D_1  S_1  
     e( 14 - 14) =      8.91075  eV     1   --> B_1  D_3  S_3  
     e( 15 - 15) =     11.63901  eV     1   --> B_2  D_4  S_4  
     e( 16 - 16) =     15.91663  eV     1   --> A_1  D_1  S_1  
     e( 17 - 17) =     15.93939  eV     1   --> B_2  D_4  S_4  
     e( 18 - 18) =     16.11440  eV     1   --> A_2  D_2  S_2  
     e( 19 - 19) =     16.22662  eV     1   --> B_1  D_3  S_3  
     e( 20 - 20) =     16.41071  eV     1   --> A_1  D_1  S_1  
     e( 21 - 21) =     16.44384  eV     1   --> B_2  D_4  S_4  
     e( 22 - 22) =     18.77421  eV     1   --> B_1  D_3  S_3  
     e( 23 - 23) =     18.83657  eV     1   --> A_1  D_1  S_1  
     e( 24 - 24) =     19.01429  eV     1   --> B_2  D_4  S_4  

 **************************************************************************

 **************************************************************************

                    xk=(   0.04000,   0.04000,   0.00000  )

     Band symmetry, C_2v (mm2)  point group:

     e(  1 -  1) =    -23.76967  eV     1   --> A_1  D_1  S_1  
     e(  2 -  2) =    -11.31384  eV     1   --> A_1  D_1  S_1  
     e(  3 -  3) =     -7.83675  eV     1   --> B_2  D_4  S_4  
     e(  4 -  4) =     -7.83623  eV     1   --> B_1  D_3  S_3  
     e(  5 -  5) =     -7.83583  eV     1   --> A_1  D_1  S_1  
     e(  6 -  6) =      0.78989  eV     1   --> A_1  D_1  S_1  
     e(  7 -  7) =      0.79880  eV     1   --> B_1  D_3  S_3  
     e(  8 -  8) =      0.80122  eV     1   --> B_2  D_4  S_4  
     e(  9 -  9) =      5.02213  eV     1   --> A_1  D_1  S_1  
     e( 10 - 10) =      8.04629  eV     1   --> B_2  D_4  S_4  
     e( 11 - 11) =      8.06714  eV     1   --> A_2  D_2  S_2  
     e( 12 - 12) =      8.07751  eV     1   --> A_1  D_1  S_1  
     e( 13 - 13) =      8.91048  eV     1   --> A_1  D_1  S_1  
     e( 14 - 14) =      8.91888  eV     1   --> B_1  D_3  S_3  
     e( 15 - 15) =     11.65660  eV     1   --> B_2  D_4  S_4  
     e( 16 - 16) =     15.82023  eV     1   --> A_1  D_1  S_1  
     e( 17 - 17) =     15.86155  eV     1   --> B_2  D_4  S_4  
     e( 18 - 18) =     16.10647  eV     1   --> A_2  D_2  S_2  
     e( 19 - 19) =     16.20327  eV     1   --> B_1  D_3  S_3  
     e( 20 - 20) =     16.46513  eV     1   --> A_1  D_1  S_1  
     e( 21 - 21) =     16.52279  eV     1   --> B_2  D_4  S_4  
     e( 22 - 22) =     18.71408  eV     1   --> B_1  D_3  S_3  
     e( 23 - 23) =     18.78503  eV     1   --> A_1  D_1  S_1  
     e( 24 - 24) =     19.01470  eV     1   --> B_2  D_4  S_4  

 **************************************************************************

 **************************************************************************

                    xk=(   0.05000,   0.05000,   0.00000  )

     Band symmetry, C_2v (mm2)  point group:

     e(  1 -  1) =    -23.76964  eV     1   --> A_1  D_1  S_1  
     e(  2 -  2) =    -11.31401  eV     1   --> A_1  D_1  S_1  
     e(  3 -  3) =     -7.83699  eV     1   --> B_2  D_4  S_4  
     e(  4 -  4) =     -7.83617  eV     1   --> B_1  D_3  S_3  
     e(  5 -  5) =     -7.83555  eV     1   --> A_1  D_1  S_1  
     e(  6 -  6) =      0.78265  eV     1   --> A_1  D_1  S_1  
     e(  7 -  7) =      0.79648  eV     1   --> B_1  D_3  S_3  
     e(  8 -  8) =      0.80024  eV     1   --> B_2  D_4  S_4  
     e(  9 -  9) =      5.03620  eV     1   --> A_1  D_1  S_1  
     e( 10 - 10) =      8.03953  eV     1   --> B_2  D_4  S_4  
     e( 11 - 11) =      8.07193  eV     1   --> A_2  D_2  S_2  
     e( 12 - 12) =      8.08811  eV     1   --> A_1  D_1  S_1  
     e( 13 - 13) =      8.91620  eV     1   --> A_1  D_1  S_1  
     e( 14 - 14) =      8.92931  eV     1   --> B_1  D_3  S_3  
     e( 15 - 15) =     11.67908  eV     1   --> B_2  D_4  S_4  
     e( 16 - 16) =     15.71861  eV     1   --> A_1  D_1  S_1  
     e( 17 - 17) =     15.78345  eV     1   --> B_2  D_4  S_4  
     e( 18 - 18) =     16.09633  eV     1   --> A_2  D_2  S_2  
     e( 19 - 19) =     16.17356  eV     1   --> B_1  D_3  S_3  
     e( 20 - 20) =     16.51309  eV     1   --> A_1  D_1  S_1  
     e( 21 - 21) =     16.60211  eV     1   --> B_2  D_4  S_4  
     e( 22 - 22) =     18.65646  eV     1   --> B_1  D_3  S_3  
     e( 23 - 23) =     18.72918  eV     1   --> A_1  D_1  S_1  
     e( 24 - 24) =     19.01542  eV     1   --> B_2  D_4  S_4  

 **************************************************************************

 **************************************************************************

                    xk=(   0.06000,   0.06000,   0.00000  )

     Band symmetry, C_2v (mm2)  point group:

     e(  1 -  1) =    -23.76959  eV     1   --> A_1  D_1  S_1  
     e(  2 -  2) =    -11.31421  eV     1   --> A_1  D_1  S_1  
     e(  3 -  3) =     -7.83728  eV     1   --> B_2  D_4  S_4  
     e(  4 -  4) =     -7.83611  eV     1   --> B_1  D_3  S_3  
     e(  5 -  5) =     -7.83522  eV     1   --> A_1  D_1  S_1  
     e(  6 -  6) =      0.77391  eV     1   --> A_1  D_1  S_1  
     e(  7 -  7) =      0.79366  eV     1   --> B_1  D_3  S_3  
     e(  8 -  8) =      0.79904  eV     1   --> B_2  D_4  S_4  
     e(  9 -  9) =      5.05329  eV     1   --> A_1  D_1  S_1  
     e( 10 - 10) =      8.03145  eV     1   --> B_2  D_4  S_4  
     e( 11 - 11) =      8.07778  eV     1   --> A_2  D_2  S_2  
     e( 12 - 12) =      8.10104  eV     1   --> A_1  D_1  S_1  
     e( 13 - 13) =      8.92319  eV     1   --> A_1  D_1  S_1  
     e( 14 - 14) =      8.94204  eV     1   --> B_1  D_3  S_3  
     e( 15 - 15) =     11.70636  eV     1   --> B_2  D_4  S_4  
     e( 16 - 16) =     15.61261  eV     1   --> A_1  D_1  S_1  
     e( 17 - 17) =     15.70559  eV     1   --> B_2  D_4  S_4  
     e( 18 - 18) =     16.08402  eV     1   --> A_2  D_2  S_2  
     e( 19 - 19) =     16.13774  eV     1   --> B_1  D_3  S_3  
     e( 20 - 20) =     16.55394  eV     1   --> A_1  D_1  S_1  
     e( 21 - 21) =     16.68119  eV     1   --> B_2  D_4  S_4  
     e( 22 - 22) =     18.60145  eV     1   --> B_1  D_3  S_3  
     e( 23 - 23) =     18.66968  eV     1   --> A_1  D_1  S_1  
     e( 24 - 24) =     19.01661  eV     1   --> B_2  D_4  S_4  

 **************************************************************************

 **************************************************************************

                    xk=(   0.07000,   0.07000,   0.00000  )

     Band symmetry, C_2v (mm2)  point group:

     e(  1 -  1) =    -23.76954  eV     1   --> A_1  D_1  S_1  
     e(  2 -  2) =    -11.31445  eV     1   --> A_1  D_1  S_1  
     e(  3 -  3) =     -7.83762  eV     1   --> B_2  D_4  S_4  
     e(  4 -  4) =     -7.83604  eV     1   --> B_1  D_3  S_3  
     e(  5 -  5) =     -7.83483  eV     1   --> A_1  D_1  S_1  
     e(  6 -  6) =      0.76373  eV     1   --> A_1  D_1  S_1  
     e(  7 -  7) =      0.79037  eV     1   --> B_1  D_3  S_3  
     e(  8 -  8) =      0.79763  eV     1   --> B_2  D_4  S_4  
     e(  9 -  9) =      5.07333  eV     1   --> A_1  D_1  S_1  
     e( 10 - 10) =      8.02214  eV     1   --> B_2  D_4  S_4  
     e( 11 - 11) =      8.08470  eV     1   --> A_2  D_2  S_2  
     e( 12 - 12) =      8.11629  eV     1   --> A_1  D_1  S_1  
     e( 13 - 13) =      8.93144  eV     1   --> A_1  D_1  S_1  
     e( 14 - 14) =      8.95703  eV     1   --> B_1  D_3  S_3  
     e( 15 - 15) =     11.73834  eV     1   --> B_2  D_4  S_4  
     e( 16 - 16) =     15.50285  eV     1   --> A_1  D_1  S_1  
     e( 17 - 17) =     15.62821  eV     1   --> B_2  D_4  S_4  
     e( 18 - 18) =     16.06959  eV     1   --> A_2  D_2  S_2  
     e( 19 - 19) =     16.09607  eV     1   --> B_1  D_3  S_3  
     e( 20 - 20) =     16.58729  eV     1   --> A_1  D_1  S_1  
     e( 21 - 21) =     16.75957  eV     1   --> B_2  D_4  S_4  
     e( 22 - 22) =     18.54905  eV     1   --> B_1  D_3  S_3  
     e( 23 - 23) =     18.60717  eV     1   --> A_1  D_1  S_1  
     e( 24 - 24) =     19.01844  eV     1   --> B_2  D_4  S_4  

 **************************************************************************

 **************************************************************************

                    xk=(   0.08000,   0.08000,   0.00000  )

     Band symmetry, C_2v (mm2)  point group:

     e(  1 -  1) =    -23.76948  eV     1   --> A_1  D_1  S_1  
     e(  2 -  2) =    -11.31471  eV     1   --> A_1  D_1  S_1  
     e(  3 -  3) =     -7.83802  eV     1   --> B_2  D_4  S_4  
     e(  4 -  4) =     -7.83595  eV     1   --> B_1  D_3  S_3  
     e(  5 -  5) =     -7.83438  eV     1   --> A_1  D_1  S_1  
     e(  6 -  6) =      0.75218  eV     1   --> A_1  D_1  S_1  
     e(  7 -  7) =      0.78660  eV     1   --> B_1  D_3  S_3  
     e(  8 -  8) =      0.79600  eV     1   --> B_2  D_4  S_4  
     e(  9 -  9) =      5.09623  eV     1   --> A_1  D_1  S_1  
     e( 10 - 10) =      8.01171  eV     1   --> B_2  D_4  S_4  
     e( 11 - 11) =      8.09267  eV     1   --> A_2  D_2  S_2  
     e( 12 - 12) =      8.13383  eV     1   --> A_1  D_1  S_1  
     e( 13 - 13) =      8.94093  eV     1   --> A_1  D_1  S_1  
     e( 14 - 14) =      8.97428  eV     1   --> B_1  D_3  S_3  
     e( 15 - 15) =     11.77489  eV     1   --> B_2  D_4  S_4  
     e( 16 - 16) =     15.38980  eV     1   --> A_1  D_1  S_1  
     e( 17 - 17) =     15.55148  eV     1   --> B_2  D_4  S_4  
     e( 18 - 18) =     16.04886  eV     1   --> B_1  D_3  S_3  
     e( 19 - 19) =     16.05309  eV     1   --> A_2  D_2  S_2  
     e( 20 - 20) =     16.61286  eV     1   --> A_1  D_1  S_1  
     e( 21 - 21) =     16.83689  eV     1   --> B_2  D_4  S_4  
     e( 22 - 22) =     18.49914  eV     1   --> B_1  D_3  S_3  
     e( 23 - 23) =     18.54232  eV     1   --> A_1  D_1  S_1  
     e( 24 - 24) =     19.02116  eV     1   --> B_2  D_4  S_4  

 **************************************************************************

 **************************************************************************

                    xk=(   0.09000,   0.09000,   0.00000  )

     Band symmetry, C_2v (mm2)  point group:

     e(  1 -  1) =    -23.76941  eV     1   --> A_1  D_1  S_1  
     e(  2 -  2) =    -11.31502  eV     1   --> A_1  D_1  S_1  
     e(  3 -  3) =     -7.83847  eV     1   --> B_2  D_4  S_4  
     e(  4 -  4) =     -7.83586  eV     1   --> B_1  D_3  S_3  
     e(  5 -  5) =     -7.83388  eV     1   --> A_1  D_1  S_1  
     e(  6 -  6) =      0.73933  eV     1   --> A_1  D_1  S_1  
     e(  7 -  7) =      0.78238  eV     1   --> B_1  D_3  S_3  
     e(  8 -  8) =      0.79416  eV     1   --> B_2  D_4  S_4  
     e(  9 -  9) =      5.12193  eV     1   --> A_1  D_1  S_1  
     e( 10 - 10) =      8.00028  eV     1   --> B_2  D_4  S_4  
     e( 11 - 11) =      8.10171  eV     1   --> A_2  D_2  S_2  
     e( 12 - 12) =      8.15365  eV     1   --> A_1  D_1  S_1  
     e( 13 - 13) =      8.95166  eV     1   --> A_1  D_1  S_1  
     e( 14 - 14) =      8.99375  eV     1   --> B_1  D_3  S_3  
     e( 15 - 15) =     11.81587  eV     1   --> B_2  D_4  S_4  
     e( 16 - 16) =     15.27392  eV     1   --> A_1  D_1  S_1  
     e( 17 - 17) =     15.47550  eV     1   --> B_2  D_4  S_4  
     e( 18 - 18) =     15.99643  eV     1   --> B_1  D_3  S_3  
     e( 19 - 19) =     16.03458  eV     1   --> A_2  D_2  S_2  
     e( 20 - 20) =     16.63042  eV     1   --> A_1  D_1  S_1  
     e( 21 - 21) =     16.91277  eV     1   --> B_2  D_4  S_4  
     e( 22 - 22) =     18.45158  eV     1   --> B_1  D_3  S_3  
     e( 23 - 23) =     18.47584  eV     1   --> A_1  D_1  S_1  
     e( 24 - 24) =     19.02503  eV     1   --> B_2  D_4  S_4  

 **************************************************************************

 **************************************************************************

                    xk=(   0.10000,   0.10000,   0.00000  )

     Band symmetry, C_2v (mm2)  point group:

     e(  1 -  1) =    -23.76933  eV     1   --> A_1  D_1  S_1  
     e(  2 -  2) =    -11.31535  eV     1   --> A_1  D_1  S_1  
     e(  3 -  3) =     -7.83897  eV     1   --> B_2  D_4  S_4  
     e(  4 -  4) =     -7.83576  eV     1   --> B_1  D_3  S_3  
     e(  5 -  5) =     -7.83334  eV     1   --> A_1  D_1  S_1  
     e(  6 -  6) =      0.72527  eV     1   --> A_1  D_1  S_1  
     e(  7 -  7) =      0.77772  eV     1   --> B_1  D_3  S_3  
     e(  8 -  8) =      0.79211  eV     1   --> B_2  D_4  S_4  
     e(  9 -  9) =      5.15032  eV     1   --> A_1  D_1  S_1  
     e( 10 - 10) =      7.98798  eV     1   --> B_2  D_4  S_4  
     e( 11 - 11) =      8.11180  eV     1   --> A_2  D_2  S_2  
     e( 12 - 12) =      8.17573  eV     1   --> A_1  D_1  S_1  
     e( 13 - 13) =      8.96362  eV     1   --> A_1  D_1  S_1  
     e( 14 - 14) =      9.01543  eV     1   --> B_1  D_3  S_3  
     e( 15 - 15) =     11.86113  eV     1   --> B_2  D_4  S_4  
     e( 16 - 16) =     15.15559  eV     1   --> A_1  D_1  S_1  
     e( 17 - 17) =     15.40037  eV     1   --> B_2  D_4  S_4  
     e( 18 - 18) =     15.93914  eV     1   --> B_1  D_3  S_3  
     e( 19 - 19) =     16.01415  eV     1   --> A_2  D_2  S_2  
     e( 20 - 20) =     16.63975  eV     1   --> A_1  D_1  S_1  
     e( 21 - 21) =     16.98679  eV     1   --> B_2  D_4  S_4  
     e( 22 - 22) =     18.40621  eV     1   --> B_1  D_3  S_3  
     e( 23 - 23) =     18.40850  eV     1   --> A_1  D_1  S_1  
     e( 24 - 24) =     19.03038  eV     1   --> B_2  D_4  S_4  

 **************************************************************************

 **************************************************************************

                    xk=(   0.11000,   0.11000,   0.00000  )

     Band symmetry, C_2v (mm2)  point group:

     e(  1 -  1) =    -23.76925  eV     1   --> A_1  D_1  S_1  
     e(  2 -  2) =    -11.31571  eV     1   --> A_1  D_1  S_1  
     e(  3 -  3) =     -7.83953  eV     1   --> B_2  D_4  S_4  
     e(  4 -  4) =     -7.83566  eV     1   --> B_1  D_3  S_3  
     e(  5 -  5) =     -7.83274  eV     1   --> A_1  D_1  S_1  
     e(  6 -  6) =      0.71008  eV     1   --> A_1  D_1  S_1  
     e(  7 -  7) =      0.77265  eV     1   --> B_1  D_3  S_3  
     e(  8 -  8) =      0.78984  eV     1   --> B_2  D_4  S_4  
     e(  9 -  9) =      5.18130  eV     1   --> A_1  D_1  S_1  
     e( 10 - 10) =      7.97494  eV     1   --> B_2  D_4  S_4  
     e( 11 - 11) =      8.12295  eV     1   --> A_2  D_2  S_2  
     e( 12 - 12) =      8.20003  eV     1   --> A_1  D_1  S_1  
     e( 13 - 13) =      8.97679  eV     1   --> A_1  D_1  S_1  
     e( 14 - 14) =      9.03928  eV     1   --> B_1  D_3  S_3  
     e( 15 - 15) =     11.91053  eV     1   --> B_2  D_4  S_4  
     e( 16 - 16) =     15.03519  eV     1   --> A_1  D_1  S_1  
     e( 17 - 17) =     15.32616  eV     1   --> B_2  D_4  S_4  
     e( 18 - 18) =     15.87734  eV     1   --> B_1  D_3  S_3  
     e( 19 - 19) =     15.99185  eV     1   --> A_2  D_2  S_2  
     e( 20 - 20) =     16.64064  eV     1   --> A_1  D_1  S_1  
     e( 21 - 21) =     17.05852  eV     1   --> B_2  D_4  S_4  
     e( 22 - 22) =     18.34105  eV     1   --> A_1  D_1  S_1  
     e( 23 - 23) =     18.36282  eV     1   --> B_1  D_3  S_3  
     e( 24 - 24) =     19.03757  eV     1   --> B_2  D_4  S_4  

 **************************************************************************

 **************************************************************************

                    xk=(   0.12000,   0.12000,   0.00000  )

     Band symmetry, C_2v (mm2)  point group:

     e(  1 -  1) =    -23.76915  eV     1   --> A_1  D_1  S_1  
     e(  2 -  2) =    -11.31609  eV     1   --> A_1  D_1  S_1  
     e(  3 -  3) =     -7.84014  eV     1   --> B_2  D_4  S_4  
     e(  4 -  4) =     -7.83555  eV     1   --> B_1  D_3  S_3  
     e(  5 -  5) =     -7.83211  eV     1   --> A_1  D_1  S_1  
     e(  6 -  6) =      0.69387  eV     1   --> A_1  D_1  S_1  
     e(  7 -  7) =      0.76718  eV     1   --> B_1  D_3  S_3  
     e(  8 -  8) =      0.78736  eV     1   --> B_2  D_4  S_4  
     e(  9 -  9) =      5.21479  eV     1   --> A_1  D_1  S_1  
     e( 10 - 10) =      7.96128  eV     1   --> B_2  D_4  S_4  
     e( 11 - 11) =      8.13515  eV     1   --> A_2  D_2  S_2  
     e( 12 - 12) =      8.22652  eV     1   --> A_1  D_1  S_1  
     e( 13 - 13) =      8.99117  eV     1   --> A_1  D_1  S_1  
     e( 14 - 14) =      9.06527  eV     1   --> B_1  D_3  S_3  
     e( 15 - 15) =     11.96389  eV     1   --> B_2  D_4  S_4  
     e( 16 - 16) =     14.91303  eV     1   --> A_1  D_1  S_1  
     e( 17 - 17) =     15.25295  eV     1   --> B_2  D_4  S_4  
     e( 18 - 18) =     15.81139  eV     1   --> B_1  D_3  S_3  
     e( 19 - 19) =     15.96777  eV     1   --> A_2  D_2  S_2  
     e( 20 - 20) =     16.63290  eV     1   --> A_1  D_1  S_1  
     e( 21 - 21) =     17.12748  eV     1   --> B_2  D_4  S_4  
     e( 22 - 22) =     18.27427  eV     1   --> A_1  D_1  S_1  
     e( 23 - 23) =     18.32119  eV     1   --> B_1  D_3  S_3  
     e( 24 - 24) =     19.04704  eV     1   --> B_2  D_4  S_4  

 **************************************************************************

 **************************************************************************

                    xk=(   0.13000,   0.13000,   0.00000  )

     Band symmetry, C_2v (mm2)  point group:

     e(  1 -  1) =    -23.76906  eV     1   --> A_1  D_1  S_1  
     e(  2 -  2) =    -11.31650  eV     1   --> A_1  D_1  S_1  
     e(  3 -  3) =     -7.84080  eV     1   --> B_2  D_4  S_4  
     e(  4 -  4) =     -7.83543  eV     1   --> B_1  D_3  S_3  
     e(  5 -  5) =     -7.83143  eV     1   --> A_1  D_1  S_1  
     e(  6 -  6) =      0.67672  eV     1   --> A_1  D_1  S_1  
     e(  7 -  7) =      0.76133  eV     1   --> B_1  D_3  S_3  
     e(  8 -  8) =      0.78467  eV     1   --> B_2  D_4  S_4  
     e(  9 -  9) =      5.25066  eV     1   --> A_1  D_1  S_1  
     e( 10 - 10) =      7.94715  eV     1   --> B_2  D_4  S_4  
     e( 11 - 11) =      8.14841  eV     1   --> A_2  D_2  S_2  
     e( 12 - 12) =      8.25518  eV     1   --> A_1  D_1  S_1  
     e( 13 - 13) =      9.00672  eV     1   --> A_1  D_1  S_1  
     e( 14 - 14) =      9.09338  eV     1   --> B_1  D_3  S_3  
     e( 15 - 15) =     12.02106  eV     1   --> B_2  D_4  S_4  
     e( 16 - 16) =     14.78944  eV     1   --> A_1  D_1  S_1  
     e( 17 - 17) =     15.18079  eV     1   --> B_2  D_4  S_4  
     e( 18 - 18) =     15.74164  eV     1   --> B_1  D_3  S_3  
     e( 19 - 19) =     15.94198  eV     1   --> A_2  D_2  S_2  
     e( 20 - 20) =     16.61636  eV     1   --> A_1  D_1  S_1  
     e( 21 - 21) =     17.19318  eV     1   --> B_2  D_4  S_4  
     e( 22 - 22) =     18.20888  eV     1   --> A_1  D_1  S_1  
     e( 23 - 23) =     18.28111  eV     1   --> B_1  D_3  S_3  
     e( 24 - 24) =     19.05924  eV     1   --> B_2  D_4  S_4  

 **************************************************************************

 **************************************************************************

                    xk=(   0.14000,   0.14000,   0.00000  )

     Band symmetry, C_2v (mm2)  point group:

     e(  1 -  1) =    -23.76895  eV     1   --> A_1  D_1  S_1  
     e(  2 -  2) =    -11.31693  eV     1   --> A_1  D_1  S_1  
     e(  3 -  3) =     -7.84151  eV     1   --> B_2  D_4  S_4  
     e(  4 -  4) =     -7.83532  eV     1   --> B_1  D_3  S_3  
     e(  5 -  5) =     -7.83072  eV     1   --> A_1  D_1  S_1  
     e(  6 -  6) =      0.65874  eV     1   --> A_1  D_1  S_1  
     e(  7 -  7) =      0.75514  eV     1   --> B_1  D_3  S_3  
     e(  8 -  8) =      0.78177  eV     1   --> B_2  D_4  S_4  
     e(  9 -  9) =      5.28881  eV     1   --> A_1  D_1  S_1  
     e( 10 - 10) =      7.93267  eV     1   --> B_2  D_4  S_4  
     e( 11 - 11) =      8.16272  eV     1   --> A_2  D_2  S_2  
     e( 12 - 12) =      8.28596  eV     1   --> A_1  D_1  S_1  
     e( 13 - 13) =      9.02343  eV     1   --> A_1  D_1  S_1  
     e( 14 - 14) =      9.12355  eV     1   --> B_1  D_3  S_3  
     e( 15 - 15) =     12.08185  eV     1   --> B_2  D_4  S_4  
     e( 16 - 16) =     14.66470  eV     1   --> A_1  D_1  S_1  
     e( 17 - 17) =     15.10976  eV     1   --> B_2  D_4  S_4  
     e( 18 - 18) =     15.66845  eV     1   --> B_1  D_3  S_3  
     e( 19 - 19) =     15.91458  eV     1   --> A_2  D_2  S_2  
     e( 20 - 20) =     16.59089  eV     1   --> A_1  D_1  S_1  
     e( 21 - 21) =     17.25506  eV     1   --> B_2  D_4  S_4  
     e( 22 - 22) =     18.14556  eV     1   --> A_1  D_1  S_1  
     e( 23 - 23) =     18.24237  eV     1   --> B_1  D_3  S_3  
     e( 24 - 24) =     19.07467  eV     1   --> B_2  D_4  S_4  

 **************************************************************************

 **************************************************************************

                    xk=(   0.15000,   0.15000,   0.00000  )

     Band symmetry, C_2v (mm2)  point group:

     e(  1 -  1) =    -23.76884  eV     1   --> A_1  D_1  S_1  
     e(  2 -  2) =    -11.31738  eV     1   --> A_1  D_1  S_1  
     e(  3 -  3) =     -7.84227  eV     1   --> B_2  D_4  S_4  
     e(  4 -  4) =     -7.83520  eV     1   --> B_1  D_3  S_3  
     e(  5 -  5) =     -7.82997  eV     1   --> A_1  D_1  S_1  
     e(  6 -  6) =      0.64001  eV     1   --> A_1  D_1  S_1  
     e(  7 -  7) =      0.74862  eV     1   --> B_1  D_3  S_3  
     e(  8 -  8) =      0.77867  eV     1   --> B_2  D_4  S_4  
     e(  9 -  9) =      5.32913  eV     1   --> A_1  D_1  S_1  
     e( 10 - 10) =      7.91798  eV     1   --> B_2  D_4  S_4  
     e( 11 - 11) =      8.17807  eV     1   --> A_2  D_2  S_2  
     e( 12 - 12) =      8.31882  eV     1   --> A_1  D_1  S_1  
     e( 13 - 13) =      9.04128  eV     1   --> A_1  D_1  S_1  
     e( 14 - 14) =      9.15576  eV     1   --> B_1  D_3  S_3  
     e( 15 - 15) =     12.14610  eV     1   --> B_2  D_4  S_4  
     e( 16 - 16) =     14.53908  eV     1   --> A_1  D_1  S_1  
     e( 17 - 17) =     15.03993  eV     1   --> B_2  D_4  S_4  
     e( 18 - 18) =     15.59213  eV     1   --> B_1  D_3  S_3  
     e( 19 - 19) =     15.88565  eV     1   --> A_2  D_2  S_2  
     e( 20 - 20) =     16.55646  eV     1   --> A_1  D_1  S_1  
     e( 21 - 21) =     17.31257  eV     1   --> B_2  D_4  S_4  
     e( 22 - 22) =     18.08488  eV     1   --> A_1  D_1  S_1  
     e( 23 - 23) =     18.20475  eV     1   --> B_1  D_3  S_3  
     e( 24 - 24) =     19.09383  eV     1   --> B_2  D_4  S_4  

 **************************************************************************

 **************************************************************************

                    xk=(   0.16000,   0.16000,   0.00000  )

     Band symmetry, C_2v (mm2)  point group:

     e(  1 -  1) =    -23.76872  eV     1   --> A_1  D_1  S_1  
     e(  2 -  2) =    -11.31784  eV     1   --> A_1  D_1  S_1  
     e(  3 -  3) =     -7.84309  eV     1   --> B_2  D_4  S_4  
     e(  4 -  4) =     -7.83509  eV     1   --> B_1  D_3  S_3  
     e(  5 -  5) =     -7.82919  eV     1   --> A_1  D_1  S_1  
     e(  6 -  6) =      0.62065  eV     1   --> A_1  D_1  S_1  
     e(  7 -  7) =      0.74179  eV     1   --> B_1  D_3  S_3  
     e(  8 -  8) =      0.77536  eV     1   --> B_2  D_4  S_4  
     e(  9 -  9) =      5.37151  eV     1   --> A_1  D_1  S_1  
     e( 10 - 10) =      7.90320  eV     1   --> B_2  D_4  S_4  
     e( 11 - 11) =      8.19448  eV     1   --> A_2  D_2  S_2  
     e( 12 - 12) =      8.35372  eV     1   --> A_1  D_1  S_1  
     e( 13 - 13) =      9.06023  eV     1   --> A_1  D_1  S_1  
     e( 14 - 14) =      9.18997  eV     1   --> B_1  D_3  S_3  
     e( 15 - 15) =     12.21361  eV     1   --> B_2  D_4  S_4  
     e( 16 - 16) =     14.41283  eV     1   --> A_1  D_1  S_1  
     e( 17 - 17) =     14.97136  eV     1   --> B_2  D_4  S_4  
     e( 18 - 18) =     15.51301  eV     1   --> B_1  D_3  S_3  
     e( 19 - 19) =     15.85528  eV     1   --> A_2  D_2  S_2  
     e( 20 - 20) =     16.51314  eV     1   --> A_1  D_1  S_1  
     e( 21 - 21) =     17.36517  eV     1   --> B_2  D_4  S_4  
     e( 22 - 22) =     18.02727  eV     1   --> A_1  D_1  S_1  
     e( 23 - 23) =     18.16805  eV     1   --> B_1  D_3  S_3  
     e( 24 - 24) =     19.11724  eV     1   --> B_2  D_4  S_4  

 **************************************************************************

 **************************************************************************

                    xk=(   0.17000,   0.17000,   0.00000  )

     Band symmetry, C_2v (mm2)  point group:

     e(  1 -  1) =    -23.76860  eV     1   --> A_1  D_1  S_1  
     e(  2 -  2) =    -11.31832  eV     1   --> A_1  D_1  S_1  
     e(  3 -  3) =     -7.84396  eV     1   --> B_2  D_4  S_4  
     e(  4 -  4) =     -7.83497  eV     1   --> B_1  D_3  S_3  
     e(  5 -  5) =     -7.82839  eV     1   --> A_1  D_1  S_1  
     e(  6 -  6) =      0.60074  eV     1   --> A_1  D_1  S_1  
     e(  7 -  7) =      0.73470  eV     1   --> B_1  D_3  S_3  
     e(  8 -  8) =      0.77186  eV     1   --> B_2  D_4  S_4  
     e(  9 -  9) =      5.41583  eV     1   --> A_1  D_1  S_1  
     e( 10 - 10) =      7.88845  eV     1   --> B_2  D_4  S_4  
     e( 11 - 11) =      8.21192  eV     1   --> A_2  D_2  S_2  
     e( 12 - 12) =      8.39060  eV     1   --> A_1  D_1  S_1  
     e( 13 - 13) =      9.08026  eV     1   --> A_1  D_1  S_1  
     e( 14 - 14) =      9.22612  eV     1   --> B_1  D_3  S_3  
     e( 15 - 15) =     12.28419  eV     1   --> B_2  D_4  S_4  
     e( 16 - 16) =     14.28618  eV     1   --> A_1  D_1  S_1  
     e( 17 - 17) =     14.90414  eV     1   --> B_2  D_4  S_4  
     e( 18 - 18) =     15.43138  eV     1   --> B_1  D_3  S_3  
     e( 19 - 19) =     15.82356  eV     1   --> A_2  D_2  S_2  
     e( 20 - 20) =     16.46112  eV     1   --> A_1  D_1  S_1  
     e( 21 - 21) =     17.41233  eV     1   --> B_2  D_4  S_4  
     e( 22 - 22) =     17.97299  eV     1   --> A_1  D_1  S_1  
     e( 23 - 23) =     18.13211  eV     1   --> B_1  D_3  S_3  
     e( 24 - 24) =     19.14537  eV     1   --> B_2  D_4  S_4  

 **************************************************************************

 **************************************************************************

                    xk=(   0.18000,   0.18000,   0.00000  )

     Band symmetry, C_2v (mm2)  point group:

     e(  1 -  1) =    -23.76847  eV     1   --> A_1  D_1  S_1  
     e(  2 -  2) =    -11.31880  eV     1   --> A_1  D_1  S_1  
     e(  3 -  3) =     -7.84488  eV     1   --> B_2  D_4  S_4  
     e(  4 -  4) =     -7.83487  eV     1   --> B_1  D_3  S_3  
     e(  5 -  5) =     -7.82757  eV     1   --> A_1  D_1  S_1  
     e(  6 -  6) =      0.58040  eV     1   --> A_1  D_1  S_1  
     e(  7 -  7) =      0.72736  eV     1   --> B_1  D_3  S_3  
     e(  8 -  8) =      0.76815  eV     1   --> B_2  D_4  S_4  
     e(  9 -  9) =      5.46199  eV     1   --> A_1  D_1  S_1  
     e( 10 - 10) =      7.87385  eV     1   --> B_2  D_4  S_4  
     e( 11 - 11) =      8.23040  eV     1   --> A_2  D_2  S_2  
     e( 12 - 12) =      8.42942  eV     1   --> A_1  D_1  S_1  
     e( 13 - 13) =      9.10132  eV     1   --> A_1  D_1  S_1  
     e( 14 - 14) =      9.26418  eV     1   --> B_1  D_3  S_3  
     e( 15 - 15) =     12.35765  eV     1   --> B_2  D_4  S_4  
     e( 16 - 16) =     14.15936  eV     1   --> A_1  D_1  S_1  
     e( 17 - 17) =     14.83836  eV     1   --> B_2  D_4  S_4  
     e( 18 - 18) =     15.34752  eV     1   --> B_1  D_3  S_3  
     e( 19 - 19) =     15.79057  eV     1   --> A_2  D_2  S_2  
     e( 20 - 20) =     16.40078  eV     1   --> A_1  D_1  S_1  
     e( 21 - 21) =     17.45362  eV     1   --> B_2  D_4  S_4  
     e( 22 - 22) =     17.92214  eV     1   --> A_1  D_1  S_1  
     e( 23 - 23) =     18.09675  eV     1   --> B_1  D_3  S_3  
     e( 24 - 24) =     19.17864  eV     1   --> B_2  D_4  S_4  

 **************************************************************************

 **************************************************************************

                    xk=(   0.19000,   0.19000,   0.00000  )

     Band symmetry, C_2v (mm2)  point group:

     e(  1 -  1) =    -23.76834  eV     1   --> A_1  D_1  S_1  
     e(  2 -  2) =    -11.31929  eV     1   --> A_1  D_1  S_1  
     e(  3 -  3) =     -7.84585  eV     1   --> B_2  D_4  S_4  
     e(  4 -  4) =     -7.83476  eV     1   --> B_1  D_3  S_3  
     e(  5 -  5) =     -7.82673  eV     1   --> A_1  D_1  S_1  
     e(  6 -  6) =      0.55970  eV     1   --> A_1  D_1  S_1  
     e(  7 -  7) =      0.71979  eV     1   --> B_1  D_3  S_3  
     e(  8 -  8) =      0.76424  eV     1   --> B_2  D_4  S_4  
     e(  9 -  9) =      5.50986  eV     1   --> A_1  D_1  S_1  
     e( 10 - 10) =      7.85950  eV     1   --> B_2  D_4  S_4  
     e( 11 - 11) =      8.24992  eV     1   --> A_2  D_2  S_2  
     e( 12 - 12) =      8.47011  eV     1   --> A_1  D_1  S_1  
     e( 13 - 13) =      9.12337  eV     1   --> A_1  D_1  S_1  
     e( 14 - 14) =      9.30410  eV     1   --> B_1  D_3  S_3  
     e( 15 - 15) =     12.43376  eV     1   --> B_2  D_4  S_4  
     e( 16 - 16) =     14.03257  eV     1   --> A_1  D_1  S_1  
     e( 17 - 17) =     14.77413  eV     1   --> B_2  D_4  S_4  
     e( 18 - 18) =     15.26168  eV     1   --> B_1  D_3  S_3  
     e( 19 - 19) =     15.75641  eV     1   --> A_2  D_2  S_2  
     e( 20 - 20) =     16.33261  eV     1   --> A_1  D_1  S_1  
     e( 21 - 21) =     17.48868  eV     1   --> B_2  D_4  S_4  
     e( 22 - 22) =     17.87465  eV     1   --> A_1  D_1  S_1  
     e( 23 - 23) =     18.06183  eV     1   --> B_1  D_3  S_3  
     e( 24 - 24) =     19.21113  eV     1   --> A_1  D_1  S_1  

 **************************************************************************

 **************************************************************************

                    xk=(   0.20000,   0.20000,   0.00000  )

     Band symmetry, C_2v (mm2)  point group:

     e(  1 -  1) =    -23.76820  eV     1   --> A_1  D_1  S_1  
     e(  2 -  2) =    -11.31979  eV     1   --> A_1  D_1  S_1  
     e(  3 -  3) =     -7.84687  eV     1   --> B_2  D_4  S_4  
     e(  4 -  4) =     -7.83467  eV     1   --> B_1  D_3  S_3  
     e(  5 -  5) =     -7.82589  eV     1   --> A_1  D_1  S_1  
     e(  6 -  6) =      0.53875  eV     1   --> A_1  D_1  S_1  
     e(  7 -  7) =      0.71204  eV     1   --> B_1  D_3  S_3  
     e(  8 -  8) =      0.76014  eV     1   --> B_2  D_4  S_4  
     e(  9 -  9) =      5.55934  eV     1   --> A_1  D_1  S_1  
     e( 10 - 10) =      7.84552  eV     1   --> B_2  D_4  S_4  
     e( 11 - 11) =      8.27048  eV     1   --> A_2  D_2  S_2  
     e( 12 - 12) =      8.51261  eV     1   --> A_1  D_1  S_1  
     e( 13 - 13) =      9.14637  eV     1   --> A_1  D_1  S_1  
     e( 14 - 14) =      9.34582  eV     1   --> B_1  D_3  S_3  
     e( 15 - 15) =     12.51229  eV     1   --> B_2  D_4  S_4  
     e( 16 - 16) =     13.90602  eV     1   --> A_1  D_1  S_1  
     e( 17 - 17) =     14.71158  eV     1   --> B_2  D_4  S_4  
     e( 18 - 18) =     15.17411  eV     1   --> B_1  D_3  S_3  
     e( 19 - 19) =     15.72118  eV     1   --> A_2  D_2  S_2  
     e( 20 - 20) =     16.25722  eV     1   --> A_1  D_1  S_1  
     e( 21 - 21) =     17.51728  eV     1   --> B_2  D_4  S_4  
     e( 22 - 22) =     17.83033  eV     1   --> A_1  D_1  S_1  
     e( 23 - 23) =     18.02723  eV     1   --> B_1  D_3  S_3  
     e( 24 - 24) =     19.19843  eV     1   --> A_1  D_1  S_1  

 **************************************************************************

 **************************************************************************

                    xk=(   0.21000,   0.21000,   0.00000  )

     Band symmetry, C_2v (mm2)  point group:

     e(  1 -  1) =    -23.76806  eV     1   --> A_1  D_1  S_1  
     e(  2 -  2) =    -11.32029  eV     1   --> A_1  D_1  S_1  
     e(  3 -  3) =     -7.84794  eV     1   --> B_2  D_4  S_4  
     e(  4 -  4) =     -7.83459  eV     1   --> B_1  D_3  S_3  
     e(  5 -  5) =     -7.82503  eV     1   --> A_1  D_1  S_1  
     e(  6 -  6) =      0.51763  eV     1   --> A_1  D_1  S_1  
     e(  7 -  7) =      0.70413  eV     1   --> B_1  D_3  S_3  
     e(  8 -  8) =      0.75585  eV     1   --> B_2  D_4  S_4  
     e(  9 -  9) =      5.61033  eV     1   --> A_1  D_1  S_1  
     e( 10 - 10) =      7.83200  eV     1   --> B_2  D_4  S_4  
     e( 11 - 11) =      8.29206  eV     1   --> A_2  D_2  S_2  
     e( 12 - 12) =      8.55686  eV     1   --> A_1  D_1  S_1  
     e( 13 - 13) =      9.17024  eV     1   --> A_1  D_1  S_1  
     e( 14 - 14) =      9.38931  eV     1   --> B_1  D_3  S_3  
     e( 15 - 15) =     12.59297  eV     1   --> B_2  D_4  S_4  
     e( 16 - 16) =     13.77991  eV     1   --> A_1  D_1  S_1  
     e( 17 - 17) =     14.65086  eV     1   --> B_2  D_4  S_4  
     e( 18 - 18) =     15.08501  eV     1   --> B_1  D_3  S_3  
     e( 19 - 19) =     15.68494  eV     1   --> A_2  D_2  S_2  
     e( 20 - 20) =     16.17531  eV     1   --> A_1  D_1  S_1  
     e( 21 - 21) =     17.53933  eV     1   --> B_2  D_4  S_4  
     e( 22 - 22) =     17.78884  eV     1   --> A_1  D_1  S_1  
     e( 23 - 23) =     17.99285  eV     1   --> B_1  D_3  S_3  
     e( 24 - 24) =     19.18449  eV     1   --> A_1  D_1  S_1  

 **************************************************************************

 **************************************************************************

                    xk=(   0.22000,   0.22000,   0.00000  )

     Band symmetry, C_2v (mm2)  point group:

     e(  1 -  1) =    -23.76791  eV     1   --> A_1  D_1  S_1  
     e(  2 -  2) =    -11.32078  eV     1   --> A_1  D_1  S_1  
     e(  3 -  3) =     -7.84906  eV     1   --> B_2  D_4  S_4  
     e(  4 -  4) =     -7.83451  eV     1   --> B_1  D_3  S_3  
     e(  5 -  5) =     -7.82418  eV     1   --> A_1  D_1  S_1  
     e(  6 -  6) =      0.49644  eV     1   --> A_1  D_1  S_1  
     e(  7 -  7) =      0.69608  eV     1   --> B_1  D_3  S_3  
     e(  8 -  8) =      0.75138  eV     1   --> B_2  D_4  S_4  
     e(  9 -  9) =      5.66271  eV     1   --> A_1  D_1  S_1  
     e( 10 - 10) =      7.81904  eV     1   --> B_2  D_4  S_4  
     e( 11 - 11) =      8.31467  eV     1   --> A_2  D_2  S_2  
     e( 12 - 12) =      8.60277  eV     1   --> A_1  D_1  S_1  
     e( 13 - 13) =      9.19492  eV     1   --> A_1  D_1  S_1  
     e( 14 - 14) =      9.43450  eV     1   --> B_1  D_3  S_3  
     e( 15 - 15) =     12.67550  eV     1   --> B_2  D_4  S_4  
     e( 16 - 16) =     13.65443  eV     1   --> A_1  D_1  S_1  
     e( 17 - 17) =     14.59220  eV     1   --> B_2  D_4  S_4  
     e( 18 - 18) =     14.99458  eV     1   --> B_1  D_3  S_3  
     e( 19 - 19) =     15.64781  eV     1   --> A_2  D_2  S_2  
     e( 20 - 20) =     16.08763  eV     1   --> A_1  D_1  S_1  
     e( 21 - 21) =     17.55486  eV     1   --> B_2  D_4  S_4  
     e( 22 - 22) =     17.74984  eV     1   --> A_1  D_1  S_1  
     e( 23 - 23) =     17.95860  eV     1   --> B_1  D_3  S_3  
     e( 24 - 24) =     19.16960  eV     1   --> A_1  D_1  S_1  

 **************************************************************************

 **************************************************************************

                    xk=(   0.23000,   0.23000,   0.00000  )

     Band symmetry, C_2v (mm2)  point group:

     e(  1 -  1) =    -23.76776  eV     1   --> A_1  D_1  S_1  
     e(  2 -  2) =    -11.32127  eV     1   --> A_1  D_1  S_1  
     e(  3 -  3) =     -7.85024  eV     1   --> B_2  D_4  S_4  
     e(  4 -  4) =     -7.83445  eV     1   --> B_1  D_3  S_3  
     e(  5 -  5) =     -7.82333  eV     1   --> A_1  D_1  S_1  
     e(  6 -  6) =      0.47525  eV     1   --> A_1  D_1  S_1  
     e(  7 -  7) =      0.68793  eV     1   --> B_1  D_3  S_3  
     e(  8 -  8) =      0.74672  eV     1   --> B_2  D_4  S_4  
     e(  9 -  9) =      5.71638  eV     1   --> A_1  D_1  S_1  
     e( 10 - 10) =      7.80671  eV     1   --> B_2  D_4  S_4  
     e( 11 - 11) =      8.33830  eV     1   --> A_2  D_2  S_2  
     e( 12 - 12) =      8.65027  eV     1   --> A_1  D_1  S_1  
     e( 13 - 13) =      9.22033  eV     1   --> A_1  D_1  S_1  
     e( 14 - 14) =      9.48135  eV     1   --> B_1  D_3  S_3  
     e( 15 - 15) =     12.75952  eV     1   --> B_2  D_4  S_4  
     e( 16 - 16) =     13.52977  eV     1   --> A_1  D_1  S_1  
     e( 17 - 17) =     14.53584  eV     1   --> B_2  D_4  S_4  
     e( 18 - 18) =     14.90302  eV     1   --> B_1  D_3  S_3  
     e( 19 - 19) =     15.60985  eV     1   --> A_2  D_2  S_2  
     e( 20 - 20) =     15.99494  eV     1   --> A_1  D_1  S_1  
     e( 21 - 21) =     17.56404  eV     1   --> B_2  D_4  S_4  
     e( 22 - 22) =     17.71292  eV     1   --> A_1  D_1  S_1  
     e( 23 - 23) =     17.92442  eV     1   --> B_1  D_3  S_3  
     e( 24 - 24) =     19.15408  eV     1   --> A_1  D_1  S_1  

 **************************************************************************

 **************************************************************************

                    xk=(   0.24000,   0.24000,   0.00000  )

     Band symmetry, C_2v (mm2)  point group:

     e(  1 -  1) =    -23.76760  eV     1   --> A_1  D_1  S_1  
     e(  2 -  2) =    -11.32174  eV     1   --> A_1  D_1  S_1  
     e(  3 -  3) =     -7.85146  eV     1   --> B_2  D_4  S_4  
     e(  4 -  4) =     -7.83441  eV     1   --> B_1  D_3  S_3  
     e(  5 -  5) =     -7.82248  eV     1   --> A_1  D_1  S_1  
     e(  6 -  6) =      0.45416  eV     1   --> A_1  D_1  S_1  
     e(  7 -  7) =      0.67971  eV     1   --> B_1  D_3  S_3  
     e(  8 -  8) =      0.74188  eV     1   --> B_2  D_4  S_4  
     e(  9 -  9) =      5.77124  eV     1   --> A_1  D_1  S_1  
     e( 10 - 10) =      7.79510  eV     1   --> B_2  D_4  S_4  
     e( 11 - 11) =      8.36294  eV     1   --> A_2  D_2  S_2  
     e( 12 - 12) =      8.69928  eV     1   --> A_1  D_1  S_1  
     e( 13 - 13) =      9.24639  eV     1   --> A_1  D_1  S_1  
     e( 14 - 14) =      9.52979  eV     1   --> B_1  D_3  S_3  
     e( 15 - 15) =     12.84457  eV     1   --> B_2  D_4  S_4  
     e( 16 - 16) =     13.40611  eV     1   --> A_1  D_1  S_1  
     e( 17 - 17) =     14.48216  eV     1   --> B_2  D_4  S_4  
     e( 18 - 18) =     14.81048  eV     1   --> B_1  D_3  S_3  
     e( 19 - 19) =     15.57115  eV     1   --> A_2  D_2  S_2  
     e( 20 - 20) =     15.89799  eV     1   --> A_1  D_1  S_1  
     e( 21 - 21) =     17.56714  eV     1   --> B_2  D_4  S_4  
     e( 22 - 22) =     17.67769  eV     1   --> A_1  D_1  S_1  
     e( 23 - 23) =     17.89027  eV     1   --> B_1  D_3  S_3  
     e( 24 - 24) =     19.13821  eV     1   --> A_1  D_1  S_1  

 **************************************************************************

 **************************************************************************

                    xk=(   0.25000,   0.25000,   0.00000  )

     Band symmetry, C_2v (mm2)  point group:

     e(  1 -  1) =    -23.76744  eV     1   --> A_1  D_1  S_1  
     e(  2 -  2) =    -11.32221  eV     1   --> A_1  D_1  S_1  
     e(  3 -  3) =     -7.85272  eV     1   --> B_2  D_4  S_4  
     e(  4 -  4) =     -7.83438  eV     1   --> B_1  D_3  S_3  
     e(  5 -  5) =     -7.82165  eV     1   --> A_1  D_1  S_1  
     e(  6 -  6) =      0.43323  eV     1   --> A_1  D_1  S_1  
     e(  7 -  7) =      0.67144  eV     1   --> B_1  D_3  S_3  
     e(  8 -  8) =      0.73686  eV     1   --> B_2  D_4  S_4  
     e(  9 -  9) =      5.82719  eV     1   --> A_1  D_1  S_1  
     e( 10 - 10) =      7.78428  eV     1   --> B_2  D_4  S_4  
     e( 11 - 11) =      8.38860  eV     1   --> A_2  D_2  S_2  
     e( 12 - 12) =      8.74969  eV     1   --> A_1  D_1  S_1  
     e( 13 - 13) =      9.27298  eV     1   --> A_1  D_1  S_1  
     e( 14 - 14) =      9.57977  eV     1   --> B_1  D_3  S_3  
     e( 15 - 15) =     12.93008  eV     1   --> B_2  D_4  S_4  
     e( 16 - 16) =     13.28366  eV     1   --> A_1  D_1  S_1  
     e( 17 - 17) =     14.43162  eV     1   --> B_2  D_4  S_4  
     e( 18 - 18) =     14.71711  eV     1   --> B_1  D_3  S_3  
     e( 19 - 19) =     15.53180  eV     1   --> A_2  D_2  S_2  
     e( 20 - 20) =     15.79750  eV     1   --> A_1  D_1  S_1  
     e( 21 - 21) =     17.56449  eV     1   --> B_2  D_4  S_4  
     e( 22 - 22) =     17.64380  eV     1   --> A_1  D_1  S_1  
     e( 23 - 23) =     17.85612  eV     1   --> B_1  D_3  S_3  
     e( 24 - 24) =     19.12223  eV     1   --> A_1  D_1  S_1  

 **************************************************************************

 **************************************************************************

                    xk=(   0.26000,   0.26000,   0.00000  )

     Band symmetry, C_2v (mm2)  point group:

     e(  1 -  1) =    -23.76728  eV     1   --> A_1  D_1  S_1  
     e(  2 -  2) =    -11.32266  eV     1   --> A_1  D_1  S_1  
     e(  3 -  3) =     -7.85404  eV     1   --> B_2  D_4  S_4  
     e(  4 -  4) =     -7.83437  eV     1   --> B_1  D_3  S_3  
     e(  5 -  5) =     -7.82085  eV     1   --> A_1  D_1  S_1  
     e(  6 -  6) =      0.41254  eV     1   --> A_1  D_1  S_1  
     e(  7 -  7) =      0.66315  eV     1   --> B_1  D_3  S_3  
     e(  8 -  8) =      0.73168  eV     1   --> B_2  D_4  S_4  
     e(  9 -  9) =      5.88412  eV     1   --> A_1  D_1  S_1  
     e( 10 - 10) =      7.77432  eV     1   --> B_2  D_4  S_4  
     e( 11 - 11) =      8.41526  eV     1   --> A_2  D_2  S_2  
     e( 12 - 12) =      8.80142  eV     1   --> A_1  D_1  S_1  
     e( 13 - 13) =      9.29998  eV     1   --> A_1  D_1  S_1  
     e( 14 - 14) =      9.63124  eV     1   --> B_1  D_3  S_3  
     e( 15 - 15) =     13.01530  eV     1   --> B_2  D_4  S_4  
     e( 16 - 16) =     13.16260  eV     1   --> A_1  D_1  S_1  
     e( 17 - 17) =     14.38489  eV     1   --> B_2  D_4  S_4  
     e( 18 - 18) =     14.62306  eV     1   --> B_1  D_3  S_3  
     e( 19 - 19) =     15.49187  eV     1   --> A_2  D_2  S_2  
     e( 20 - 20) =     15.69415  eV     1   --> A_1  D_1  S_1  
     e( 21 - 21) =     17.55647  eV     1   --> B_2  D_4  S_4  
     e( 22 - 22) =     17.61094  eV     1   --> A_1  D_1  S_1  
     e( 23 - 23) =     17.82196  eV     1   --> B_1  D_3  S_3  
     e( 24 - 24) =     19.10638  eV     1   --> A_1  D_1  S_1  

 **************************************************************************

 **************************************************************************

                    xk=(   0.27000,   0.27000,   0.00000  )

     Band symmetry, C_2v (mm2)  point group:

     e(  1 -  1) =    -23.76711  eV     1   --> A_1  D_1  S_1  
     e(  2 -  2) =    -11.32309  eV     1   --> A_1  D_1  S_1  
     e(  3 -  3) =     -7.85541  eV     1   --> B_2  D_4  S_4  
     e(  4 -  4) =     -7.83439  eV     1   --> B_1  D_3  S_3  
     e(  5 -  5) =     -7.82006  eV     1   --> A_1  D_1  S_1  
     e(  6 -  6) =      0.39217  eV     1   --> A_1  D_1  S_1  
     e(  7 -  7) =      0.65487  eV     1   --> B_1  D_3  S_3  
     e(  8 -  8) =      0.72632  eV     1   --> B_2  D_4  S_4  
     e(  9 -  9) =      5.94195  eV     1   --> A_1  D_1  S_1  
     e( 10 - 10) =      7.76529  eV     1   --> B_2  D_4  S_4  
     e( 11 - 11) =      8.44293  eV     1   --> A_2  D_2  S_2  
     e( 12 - 12) =      8.85436  eV     1   --> A_1  D_1  S_1  
     e( 13 - 13) =      9.32725  eV     1   --> A_1  D_1  S_1  
     e( 14 - 14) =      9.68413  eV     1   --> B_1  D_3  S_3  
     e( 15 - 15) =     13.04313  eV     1   --> A_1  D_1  S_1  
     e( 16 - 16) =     13.09923  eV     1   --> B_2  D_4  S_4  
     e( 17 - 17) =     14.34288  eV     1   --> B_2  D_4  S_4  
     e( 18 - 18) =     14.52845  eV     1   --> B_1  D_3  S_3  
     e( 19 - 19) =     15.45144  eV     1   --> A_2  D_2  S_2  
     e( 20 - 20) =     15.58859  eV     1   --> A_1  D_1  S_1  
     e( 21 - 21) =     17.54349  eV     1   --> B_2  D_4  S_4  
     e( 22 - 22) =     17.57884  eV     1   --> A_1  D_1  S_1  
     e( 23 - 23) =     17.78780  eV     1   --> B_1  D_3  S_3  
     e( 24 - 24) =     19.09087  eV     1   --> A_1  D_1  S_1  

 **************************************************************************

 **************************************************************************

                    xk=(   0.28000,   0.28000,   0.00000  )

     Band symmetry, C_2v (mm2)  point group:

     e(  1 -  1) =    -23.76695  eV     1   --> A_1  D_1  S_1  
     e(  2 -  2) =    -11.32350  eV     1   --> A_1  D_1  S_1  
     e(  3 -  3) =     -7.85682  eV     1   --> B_2  D_4  S_4  
     e(  4 -  4) =     -7.83442  eV     1   --> B_1  D_3  S_3  
     e(  5 -  5) =     -7.81931  eV     1   --> A_1  D_1  S_1  
     e(  6 -  6) =      0.37217  eV     1   --> A_1  D_1  S_1  
     e(  7 -  7) =      0.64662  eV     1   --> B_1  D_3  S_3  
     e(  8 -  8) =      0.72081  eV     1   --> B_2  D_4  S_4  
     e(  9 -  9) =      6.00058  eV     1   --> A_1  D_1  S_1  
     e( 10 - 10) =      7.75723  eV     1   --> B_2  D_4  S_4  
     e( 11 - 11) =      8.47158  eV     1   --> A_2  D_2  S_2  
     e( 12 - 12) =      8.90839  eV     1   --> A_1  D_1  S_1  
     e( 13 - 13) =      9.35463  eV     1   --> A_1  D_1  S_1  
     e( 14 - 14) =      9.73838  eV     1   --> B_1  D_3  S_3  
     e( 15 - 15) =     12.92547  eV     1   --> A_1  D_1  S_1  
     e( 16 - 16) =     13.18050  eV     1   --> B_2  D_4  S_4  
     e( 17 - 17) =     14.30688  eV     1   --> B_2  D_4  S_4  
     e( 18 - 18) =     14.43341  eV     1   --> B_1  D_3  S_3  
     e( 19 - 19) =     15.41059  eV     1   --> A_2  D_2  S_2  
     e( 20 - 20) =     15.48139  eV     1   --> A_1  D_1  S_1  
     e( 21 - 21) =     17.52594  eV     1   --> B_2  D_4  S_4  
     e( 22 - 22) =     17.54729  eV     1   --> A_1  D_1  S_1  
     e( 23 - 23) =     17.75365  eV     1   --> B_1  D_3  S_3  
     e( 24 - 24) =     19.07585  eV     1   --> A_1  D_1  S_1  

 **************************************************************************

 **************************************************************************

                    xk=(   0.29000,   0.29000,   0.00000  )

     Band symmetry, C_2v (mm2)  point group:

     e(  1 -  1) =    -23.76678  eV     1   --> A_1  D_1  S_1  
     e(  2 -  2) =    -11.32388  eV     1   --> A_1  D_1  S_1  
     e(  3 -  3) =     -7.85828  eV     1   --> B_2  D_4  S_4  
     e(  4 -  4) =     -7.83448  eV     1   --> B_1  D_3  S_3  
     e(  5 -  5) =     -7.81859  eV     1   --> A_1  D_1  S_1  
     e(  6 -  6) =      0.35261  eV     1   --> A_1  D_1  S_1  
     e(  7 -  7) =      0.63845  eV     1   --> B_1  D_3  S_3  
     e(  8 -  8) =      0.71515  eV     1   --> B_2  D_4  S_4  
     e(  9 -  9) =      6.05992  eV     1   --> A_1  D_1  S_1  
     e( 10 - 10) =      7.75020  eV     1   --> B_2  D_4  S_4  
     e( 11 - 11) =      8.50123  eV     1   --> A_2  D_2  S_2  
     e( 12 - 12) =      8.96340  eV     1   --> A_1  D_1  S_1  
     e( 13 - 13) =      9.38194  eV     1   --> A_1  D_1  S_1  
     e( 14 - 14) =      9.79393  eV     1   --> B_1  D_3  S_3  
     e( 15 - 15) =     12.80984  eV     1   --> A_1  D_1  S_1  
     e( 16 - 16) =     13.25726  eV     1   --> B_2  D_4  S_4  
     e( 17 - 17) =     14.27864  eV     1   --> B_2  D_4  S_4  
     e( 18 - 18) =     14.33803  eV     1   --> B_1  D_3  S_3  
     e( 19 - 19) =     15.36939  eV     1   --> A_2  D_2  S_2  
     e( 20 - 20) =     15.37313  eV     1   --> A_1  D_1  S_1  
     e( 21 - 21) =     17.50423  eV     1   --> B_2  D_4  S_4  
     e( 22 - 22) =     17.51613  eV     1   --> A_1  D_1  S_1  
     e( 23 - 23) =     17.71953  eV     1   --> B_1  D_3  S_3  
     e( 24 - 24) =     19.06147  eV     1   --> A_1  D_1  S_1  

 **************************************************************************

 **************************************************************************

                    xk=(   0.30000,   0.30000,   0.00000  )

     Band symmetry, C_2v (mm2)  point group:

     e(  1 -  1) =    -23.76661  eV     1   --> A_1  D_1  S_1  
     e(  2 -  2) =    -11.32424  eV     1   --> A_1  D_1  S_1  
     e(  3 -  3) =     -7.85978  eV     1   --> B_2  D_4  S_4  
     e(  4 -  4) =     -7.83457  eV     1   --> B_1  D_3  S_3  
     e(  5 -  5) =     -7.81791  eV     1   --> A_1  D_1  S_1  
     e(  6 -  6) =      0.33356  eV     1   --> A_1  D_1  S_1  
     e(  7 -  7) =      0.63036  eV     1   --> B_1  D_3  S_3  
     e(  8 -  8) =      0.70933  eV     1   --> B_2  D_4  S_4  
     e(  9 -  9) =      6.11988  eV     1   --> A_1  D_1  S_1  
     e( 10 - 10) =      7.74425  eV     1   --> B_2  D_4  S_4  
     e( 11 - 11) =      8.53186  eV     1   --> A_2  D_2  S_2  
     e( 12 - 12) =      9.01924  eV     1   --> A_1  D_1  S_1  
     e( 13 - 13) =      9.40897  eV     1   --> A_1  D_1  S_1  
     e( 14 - 14) =      9.85071  eV     1   --> B_1  D_3  S_3  
     e( 15 - 15) =     12.69647  eV     1   --> A_1  D_1  S_1  
     e( 16 - 16) =     13.32705  eV     1   --> B_2  D_4  S_4  
     e( 17 - 17) =     14.24242  eV     1   --> B_1  D_3  S_3  
     e( 18 - 18) =     14.26054  eV     1   --> B_2  D_4  S_4  
     e( 19 - 19) =     15.26432  eV     1   --> A_1  D_1  S_1  
     e( 20 - 20) =     15.32791  eV     1   --> A_2  D_2  S_2  
     e( 21 - 21) =     17.47871  eV     1   --> B_2  D_4  S_4  
     e( 22 - 22) =     17.48526  eV     1   --> A_1  D_1  S_1  
     e( 23 - 23) =     17.68550  eV     1   --> B_1  D_3  S_3  
     e( 24 - 24) =     19.04784  eV     1   --> A_1  D_1  S_1  

 **************************************************************************

 **************************************************************************

                    xk=(   0.31000,   0.31000,   0.00000  )

     Band symmetry, C_2v (mm2)  point group:

     e(  1 -  1) =    -23.76644  eV     1   --> A_1  D_1  S_1  
     e(  2 -  2) =    -11.32456  eV     1   --> A_1  D_1  S_1  
     e(  3 -  3) =     -7.86133  eV     1   --> B_2  D_4  S_4  
     e(  4 -  4) =     -7.83468  eV     1   --> B_1  D_3  S_3  
     e(  5 -  5) =     -7.81727  eV     1   --> A_1  D_1  S_1  
     e(  6 -  6) =      0.31506  eV     1   --> A_1  D_1  S_1  
     e(  7 -  7) =      0.62239  eV     1   --> B_1  D_3  S_3  
     e(  8 -  8) =      0.70337  eV     1   --> B_2  D_4  S_4  
     e(  9 -  9) =      6.18037  eV     1   --> A_1  D_1  S_1  
     e( 10 - 10) =      7.73942  eV     1   --> B_2  D_4  S_4  
     e( 11 - 11) =      8.56346  eV     1   --> A_2  D_2  S_2  
     e( 12 - 12) =      9.07579  eV     1   --> A_1  D_1  S_1  
     e( 13 - 13) =      9.43547  eV     1   --> A_1  D_1  S_1  
     e( 14 - 14) =      9.90867  eV     1   --> B_1  D_3  S_3  
     e( 15 - 15) =     12.58562  eV     1   --> A_1  D_1  S_1  
     e( 16 - 16) =     13.38692  eV     1   --> B_2  D_4  S_4  
     e( 17 - 17) =     14.14666  eV     1   --> B_1  D_3  S_3  
     e( 18 - 18) =     14.25544  eV     1   --> B_2  D_4  S_4  
     e( 19 - 19) =     15.15546  eV     1   --> A_1  D_1  S_1  
     e( 20 - 20) =     15.28622  eV     1   --> A_2  D_2  S_2  
     e( 21 - 21) =     17.44973  eV     1   --> B_2  D_4  S_4  
     e( 22 - 22) =     17.45460  eV     1   --> A_1  D_1  S_1  
     e( 23 - 23) =     17.65160  eV     1   --> B_1  D_3  S_3  
     e( 24 - 24) =     19.03503  eV     1   --> A_1  D_1  S_1  

 **************************************************************************

 **************************************************************************

                    xk=(   0.32000,   0.32000,   0.00000  )

     Band symmetry, C_2v (mm2)  point group:

     e(  1 -  1) =    -23.76626  eV     1   --> A_1  D_1  S_1  
     e(  2 -  2) =    -11.32485  eV     1   --> A_1  D_1  S_1  
     e(  3 -  3) =     -7.86292  eV     1   --> B_2  D_4  S_4  
     e(  4 -  4) =     -7.83483  eV     1   --> B_1  D_3  S_3  
     e(  5 -  5) =     -7.81668  eV     1   --> A_1  D_1  S_1  
     e(  6 -  6) =      0.29717  eV     1   --> A_1  D_1  S_1  
     e(  7 -  7) =      0.61456  eV     1   --> B_1  D_3  S_3  
     e(  8 -  8) =      0.69727  eV     1   --> B_2  D_4  S_4  
     e(  9 -  9) =      6.24129  eV     1   --> A_1  D_1  S_1  
     e( 10 - 10) =      7.73574  eV     1   --> B_2  D_4  S_4  
     e( 11 - 11) =      8.59603  eV     1   --> A_2  D_2  S_2  
     e( 12 - 12) =      9.13289  eV     1   --> A_1  D_1  S_1  
     e( 13 - 13) =      9.46118  eV     1   --> A_1  D_1  S_1  
     e( 14 - 14) =      9.96773  eV     1   --> B_1  D_3  S_3  
     e( 15 - 15) =     12.47755  eV     1   --> A_1  D_1  S_1  
     e( 16 - 16) =     13.43384  eV     1   --> B_2  D_4  S_4  
     e( 17 - 17) =     14.05085  eV     1   --> B_1  D_3  S_3  
     e( 18 - 18) =     14.26628  eV     1   --> B_2  D_4  S_4  
     e( 19 - 19) =     15.04703  eV     1   --> A_1  D_1  S_1  
     e( 20 - 20) =     15.24439  eV     1   --> A_2  D_2  S_2  
     e( 21 - 21) =     17.41762  eV     1   --> B_2  D_4  S_4  
     e( 22 - 22) =     17.42412  eV     1   --> A_1  D_1  S_1  
     e( 23 - 23) =     17.61789  eV     1   --> B_1  D_3  S_3  
     e( 24 - 24) =     19.02308  eV     1   --> A_1  D_1  S_1  

 **************************************************************************

 **************************************************************************

                    xk=(   0.33000,   0.33000,   0.00000  )

     Band symmetry, C_2v (mm2)  point group:

     e(  1 -  1) =    -23.76609  eV     1   --> A_1  D_1  S_1  
     e(  2 -  2) =    -11.32510  eV     1   --> A_1  D_1  S_1  
     e(  3 -  3) =     -7.86456  eV     1   --> B_2  D_4  S_4  
     e(  4 -  4) =     -7.83500  eV     1   --> B_1  D_3  S_3  
     e(  5 -  5) =     -7.81616  eV     1   --> A_1  D_1  S_1  
     e(  6 -  6) =      0.27994  eV     1   --> A_1  D_1  S_1  
     e(  7 -  7) =      0.60689  eV     1   --> B_1  D_3  S_3  
     e(  8 -  8) =      0.69104  eV     1   --> B_2  D_4  S_4  
     e(  9 -  9) =      6.30257  eV     1   --> A_1  D_1  S_1  
     e( 10 - 10) =      7.73326  eV     1   --> B_2  D_4  S_4  
     e( 11 - 11) =      8.62956  eV     1   --> A_2  D_2  S_2  
     e( 12 - 12) =      9.19036  eV     1   --> A_1  D_1  S_1  
     e( 13 - 13) =      9.48580  eV     1   --> A_1  D_1  S_1  
     e( 14 - 14) =     10.02782  eV     1   --> B_1  D_3  S_3  
     e( 15 - 15) =     12.37256  eV     1   --> A_1  D_1  S_1  
     e( 16 - 16) =     13.46561  eV     1   --> B_2  D_4  S_4  
     e( 17 - 17) =     13.95507  eV     1   --> B_1  D_3  S_3  
     e( 18 - 18) =     14.29517  eV     1   --> B_2  D_4  S_4  
     e( 19 - 19) =     14.93949  eV     1   --> A_1  D_1  S_1  
     e( 20 - 20) =     15.20247  eV     1   --> A_2  D_2  S_2  
     e( 21 - 21) =     17.38266  eV     1   --> B_2  D_4  S_4  
     e( 22 - 22) =     17.39384  eV     1   --> A_1  D_1  S_1  
     e( 23 - 23) =     17.58442  eV     1   --> B_1  D_3  S_3  
     e( 24 - 24) =     19.01203  eV     1   --> A_1  D_1  S_1  

 **************************************************************************

 **************************************************************************

                    xk=(   0.34000,   0.34000,   0.00000  )

     Band symmetry, C_2v (mm2)  point group:

     e(  1 -  1) =    -23.76592  eV     1   --> A_1  D_1  S_1  
     e(  2 -  2) =    -11.32531  eV     1   --> A_1  D_1  S_1  
     e(  3 -  3) =     -7.86623  eV     1   --> B_2  D_4  S_4  
     e(  4 -  4) =     -7.83521  eV     1   --> B_1  D_3  S_3  
     e(  5 -  5) =     -7.81568  eV     1   --> A_1  D_1  S_1  
     e(  6 -  6) =      0.26342  eV     1   --> A_1  D_1  S_1  
     e(  7 -  7) =      0.59942  eV     1   --> B_1  D_3  S_3  
     e(  8 -  8) =      0.68469  eV     1   --> B_2  D_4  S_4  
     e(  9 -  9) =      6.36411  eV     1   --> A_1  D_1  S_1  
     e( 10 - 10) =      7.73200  eV     1   --> B_2  D_4  S_4  
     e( 11 - 11) =      8.66404  eV     1   --> A_2  D_2  S_2  
     e( 12 - 12) =      9.24802  eV     1   --> A_1  D_1  S_1  
     e( 13 - 13) =      9.50899  eV     1   --> A_1  D_1  S_1  
     e( 14 - 14) =     10.08888  eV     1   --> B_1  D_3  S_3  
     e( 15 - 15) =     12.27096  eV     1   --> A_1  D_1  S_1  
     e( 16 - 16) =     13.48179  eV     1   --> B_2  D_4  S_4  
     e( 17 - 17) =     13.85938  eV     1   --> B_1  D_3  S_3  
     e( 18 - 18) =     14.34245  eV     1   --> B_2  D_4  S_4  
     e( 19 - 19) =     14.83331  eV     1   --> A_1  D_1  S_1  
     e( 20 - 20) =     15.16053  eV     1   --> A_2  D_2  S_2  
     e( 21 - 21) =     17.34513  eV     1   --> B_2  D_4  S_4  
     e( 22 - 22) =     17.36378  eV     1   --> A_1  D_1  S_1  
     e( 23 - 23) =     17.55128  eV     1   --> B_1  D_3  S_3  
     e( 24 - 24) =     19.00189  eV     1   --> A_1  D_1  S_1  

 **************************************************************************

 **************************************************************************

                    xk=(   0.35000,   0.35000,   0.00000  )

     Band symmetry, C_2v (mm2)  point group:

     e(  1 -  1) =    -23.76575  eV     1   --> A_1  D_1  S_1  
     e(  2 -  2) =    -11.32548  eV     1   --> A_1  D_1  S_1  
     e(  3 -  3) =     -7.86795  eV     1   --> B_2  D_4  S_4  
     e(  4 -  4) =     -7.83546  eV     1   --> B_1  D_3  S_3  
     e(  5 -  5) =     -7.81527  eV     1   --> A_1  D_1  S_1  
     e(  6 -  6) =      0.24764  eV     1   --> A_1  D_1  S_1  
     e(  7 -  7) =      0.59215  eV     1   --> B_1  D_3  S_3  
     e(  8 -  8) =      0.67822  eV     1   --> B_2  D_4  S_4  
     e(  9 -  9) =      6.42582  eV     1   --> A_1  D_1  S_1  
     e( 10 - 10) =      7.73198  eV     1   --> B_2  D_4  S_4  
     e( 11 - 11) =      8.69945  eV     1   --> A_2  D_2  S_2  
     e( 12 - 12) =      9.30566  eV     1   --> A_1  D_1  S_1  
     e( 13 - 13) =      9.53042  eV     1   --> A_1  D_1  S_1  
     e( 14 - 14) =     10.15083  eV     1   --> B_1  D_3  S_3  
     e( 15 - 15) =     12.17308  eV     1   --> A_1  D_1  S_1  
     e( 16 - 16) =     13.48388  eV     1   --> B_2  D_4  S_4  
     e( 17 - 17) =     13.76385  eV     1   --> B_1  D_3  S_3  
     e( 18 - 18) =     14.40652  eV     1   --> B_2  D_4  S_4  
     e( 19 - 19) =     14.72892  eV     1   --> A_1  D_1  S_1  
     e( 20 - 20) =     15.11863  eV     1   --> A_2  D_2  S_2  
     e( 21 - 21) =     17.30529  eV     1   --> B_2  D_4  S_4  
     e( 22 - 22) =     17.33400  eV     1   --> A_1  D_1  S_1  
     e( 23 - 23) =     17.51854  eV     1   --> B_1  D_3  S_3  
     e( 24 - 24) =     18.99262  eV     1   --> A_1  D_1  S_1  

 **************************************************************************

 **************************************************************************

                    xk=(   0.36000,   0.36000,   0.00000  )

     Band symmetry, C_2v (mm2)  point group:

     e(  1 -  1) =    -23.76558  eV     1   --> A_1  D_1  S_1  
     e(  2 -  2) =    -11.32560  eV     1   --> A_1  D_1  S_1  
     e(  3 -  3) =     -7.86971  eV     1   --> B_2  D_4  S_4  
     e(  4 -  4) =     -7.83574  eV     1   --> B_1  D_3  S_3  
     e(  5 -  5) =     -7.81493  eV     1   --> A_1  D_1  S_1  
     e(  6 -  6) =      0.23265  eV     1   --> A_1  D_1  S_1  
     e(  7 -  7) =      0.58511  eV     1   --> B_1  D_3  S_3  
     e(  8 -  8) =      0.67164  eV     1   --> B_2  D_4  S_4  
     e(  9 -  9) =      6.48762  eV     1   --> A_1  D_1  S_1  
     e( 10 - 10) =      7.73324  eV     1   --> B_2  D_4  S_4  
     e( 11 - 11) =      8.73580  eV     1   --> A_2  D_2  S_2  
     e( 12 - 12) =      9.36300  eV     1   --> A_1  D_1  S_1  
     e( 13 - 13) =      9.54971  eV     1   --> A_1  D_1  S_1  
     e( 14 - 14) =     10.21360  eV     1   --> B_1  D_3  S_3  
     e( 15 - 15) =     12.07930  eV     1   --> A_1  D_1  S_1  
     e( 16 - 16) =     13.47452  eV     1   --> B_2  D_4  S_4  
     e( 17 - 17) =     13.66856  eV     1   --> B_1  D_3  S_3  
     e( 18 - 18) =     14.48461  eV     1   --> B_2  D_4  S_4  
     e( 19 - 19) =     14.62681  eV     1   --> A_1  D_1  S_1  
     e( 20 - 20) =     15.07682  eV     1   --> A_2  D_2  S_2  
     e( 21 - 21) =     17.26338  eV     1   --> B_2  D_4  S_4  
     e( 22 - 22) =     17.30458  eV     1   --> A_1  D_1  S_1  
     e( 23 - 23) =     17.48626  eV     1   --> B_1  D_3  S_3  
     e( 24 - 24) =     18.98422  eV     1   --> A_1  D_1  S_1  

 **************************************************************************

 **************************************************************************

                    xk=(   0.37000,   0.37000,   0.00000  )

     Band symmetry, C_2v (mm2)  point group:

     e(  1 -  1) =    -23.76541  eV     1   --> A_1  D_1  S_1  
     e(  2 -  2) =    -11.32568  eV     1   --> A_1  D_1  S_1  
     e(  3 -  3) =     -7.87150  eV     1   --> B_2  D_4  S_4  
     e(  4 -  4) =     -7.83605  eV     1   --> B_1  D_3  S_3  
     e(  5 -  5) =     -7.81466  eV     1   --> A_1  D_1  S_1  
     e(  6 -  6) =      0.21849  eV     1   --> A_1  D_1  S_1  
     e(  7 -  7) =      0.57832  eV     1   --> B_1  D_3  S_3  
     e(  8 -  8) =      0.66496  eV     1   --> B_2  D_4  S_4  
     e(  9 -  9) =      6.54941  eV     1   --> A_1  D_1  S_1  
     e( 10 - 10) =      7.73578  eV     1   --> B_2  D_4  S_4  
     e( 11 - 11) =      8.77307  eV     1   --> A_2  D_2  S_2  
     e( 12 - 12) =      9.41968  eV     1   --> A_1  D_1  S_1  
     e( 13 - 13) =      9.56657  eV     1   --> A_1  D_1  S_1  
     e( 14 - 14) =     10.27712  eV     1   --> B_1  D_3  S_3  
     e( 15 - 15) =     11.98997  eV     1   --> A_1  D_1  S_1  
     e( 16 - 16) =     13.45655  eV     1   --> B_2  D_4  S_4  
     e( 17 - 17) =     13.57357  eV     1   --> B_1  D_3  S_3  
     e( 18 - 18) =     14.52742  eV     1   --> A_1  D_1  S_1  
     e( 19 - 19) =     14.57377  eV     1   --> B_2  D_4  S_4  
     e( 20 - 20) =     15.03516  eV     1   --> A_2  D_2  S_2  
     e( 21 - 21) =     17.21964  eV     1   --> B_2  D_4  S_4  
     e( 22 - 22) =     17.27561  eV     1   --> A_1  D_1  S_1  
     e( 23 - 23) =     17.45455  eV     1   --> B_1  D_3  S_3  
     e( 24 - 24) =     18.97664  eV     1   --> A_1  D_1  S_1  

 **************************************************************************

 **************************************************************************

                    xk=(   0.38000,   0.38000,   0.00000  )

     Band symmetry, C_2v (mm2)  point group:

     e(  1 -  1) =    -23.76524  eV     1   --> A_1  D_1  S_1  
     e(  2 -  2) =    -11.32570  eV     1   --> A_1  D_1  S_1  
     e(  3 -  3) =     -7.87333  eV     1   --> B_2  D_4  S_4  
     e(  4 -  4) =     -7.83641  eV     1   --> B_1  D_3  S_3  
     e(  5 -  5) =     -7.81446  eV     1   --> A_1  D_1  S_1  
     e(  6 -  6) =      0.20517  eV     1   --> A_1  D_1  S_1  
     e(  7 -  7) =      0.57180  eV     1   --> B_1  D_3  S_3  
     e(  8 -  8) =      0.65818  eV     1   --> B_2  D_4  S_4  
     e(  9 -  9) =      6.61110  eV     1   --> A_1  D_1  S_1  
     e( 10 - 10) =      7.73963  eV     1   --> B_2  D_4  S_4  
     e( 11 - 11) =      8.81126  eV     1   --> A_2  D_2  S_2  
     e( 12 - 12) =      9.47508  eV     1   --> A_1  D_1  S_1  
     e( 13 - 13) =      9.58091  eV     1   --> A_1  D_1  S_1  
     e( 14 - 14) =     10.34130  eV     1   --> B_1  D_3  S_3  
     e( 15 - 15) =     11.90548  eV     1   --> A_1  D_1  S_1  
     e( 16 - 16) =     13.43240  eV     1   --> B_2  D_4  S_4  
     e( 17 - 17) =     13.47894  eV     1   --> B_1  D_3  S_3  
     e( 18 - 18) =     14.43125  eV     1   --> A_1  D_1  S_1  
     e( 19 - 19) =     14.67142  eV     1   --> B_2  D_4  S_4  
     e( 20 - 20) =     14.99371  eV     1   --> A_2  D_2  S_2  
     e( 21 - 21) =     17.17431  eV     1   --> B_2  D_4  S_4  
     e( 22 - 22) =     17.24719  eV     1   --> A_1  D_1  S_1  
     e( 23 - 23) =     17.42347  eV     1   --> B_1  D_3  S_3  
     e( 24 - 24) =     18.96983  eV     1   --> A_1  D_1  S_1  

 **************************************************************************

 **************************************************************************

                    xk=(   0.39000,   0.39000,   0.00000  )

     Band symmetry, C_2v (mm2)  point group:

     e(  1 -  1) =    -23.76508  eV     1   --> A_1  D_1  S_1  
     e(  2 -  2) =    -11.32568  eV     1   --> A_1  D_1  S_1  
     e(  3 -  3) =     -7.87520  eV     1   --> B_2  D_4  S_4  
     e(  4 -  4) =     -7.83680  eV     1   --> B_1  D_3  S_3  
     e(  5 -  5) =     -7.81434  eV     1   --> A_1  D_1  S_1  
     e(  6 -  6) =      0.19275  eV     1   --> A_1  D_1  S_1  
     e(  7 -  7) =      0.56557  eV     1   --> B_1  D_3  S_3  
     e(  8 -  8) =      0.65132  eV     1   --> B_2  D_4  S_4  
     e(  9 -  9) =      6.67258  eV     1   --> A_1  D_1  S_1  
     e( 10 - 10) =      7.74481  eV     1   --> B_2  D_4  S_4  
     e( 11 - 11) =      8.85033  eV     1   --> A_2  D_2  S_2  
     e( 12 - 12) =      9.52748  eV     1   --> A_1  D_1  S_1  
     e( 13 - 13) =      9.59370  eV     1   --> A_1  D_1  S_1  
     e( 14 - 14) =     10.40607  eV     1   --> B_1  D_3  S_3  
     e( 15 - 15) =     11.82624  eV     1   --> A_1  D_1  S_1  
     e( 16 - 16) =     13.38472  eV     1   --> B_1  D_3  S_3  
     e( 17 - 17) =     13.40395  eV     1   --> B_2  D_4  S_4  
     e( 18 - 18) =     14.33878  eV     1   --> A_1  D_1  S_1  
     e( 19 - 19) =     14.77551  eV     1   --> B_2  D_4  S_4  
     e( 20 - 20) =     14.95252  eV     1   --> A_2  D_2  S_2  
     e( 21 - 21) =     17.12763  eV     1   --> B_2  D_4  S_4  
     e( 22 - 22) =     17.21943  eV     1   --> A_1  D_1  S_1  
     e( 23 - 23) =     17.39312  eV     1   --> B_1  D_3  S_3  
     e( 24 - 24) =     18.96374  eV     1   --> A_1  D_1  S_1  

 **************************************************************************

 **************************************************************************

                    xk=(   0.40000,   0.40000,   0.00000  )

     Band symmetry, C_2v (mm2)  point group:

     e(  1 -  1) =    -23.76491  eV     1   --> A_1  D_1  S_1  
     e(  2 -  2) =    -11.32560  eV     1   --> A_1  D_1  S_1  
     e(  3 -  3) =     -7.87710  eV     1   --> B_2  D_4  S_4  
     e(  4 -  4) =     -7.83723  eV     1   --> B_1  D_3  S_3  
     e(  5 -  5) =     -7.81429  eV     1   --> A_1  D_1  S_1  
     e(  6 -  6) =      0.18123  eV     1   --> A_1  D_1  S_1  
     e(  7 -  7) =      0.55964  eV     1   --> B_1  D_3  S_3  
     e(  8 -  8) =      0.64438  eV     1   --> B_2  D_4  S_4  
     e(  9 -  9) =      6.73376  eV     1   --> A_1  D_1  S_1  
     e( 10 - 10) =      7.75131  eV     1   --> B_2  D_4  S_4  
     e( 11 - 11) =      8.89030  eV     1   --> A_2  D_2  S_2  
     e( 12 - 12) =      9.56873  eV     1   --> A_1  D_1  S_1  
     e( 13 - 13) =      9.61234  eV     1   --> A_1  D_1  S_1  
     e( 14 - 14) =     10.47135  eV     1   --> B_1  D_3  S_3  
     e( 15 - 15) =     11.75263  eV     1   --> A_1  D_1  S_1  
     e( 16 - 16) =     13.29097  eV     1   --> B_1  D_3  S_3  
     e( 17 - 17) =     13.37256  eV     1   --> B_2  D_4  S_4  
     e( 18 - 18) =     14.25052  eV     1   --> A_1  D_1  S_1  
     e( 19 - 19) =     14.88449  eV     1   --> B_2  D_4  S_4  
     e( 20 - 20) =     14.91163  eV     1   --> A_2  D_2  S_2  
     e( 21 - 21) =     17.07987  eV     1   --> B_2  D_4  S_4  
     e( 22 - 22) =     17.19246  eV     1   --> A_1  D_1  S_1  
     e( 23 - 23) =     17.36359  eV     1   --> B_1  D_3  S_3  
     e( 24 - 24) =     18.95833  eV     1   --> A_1  D_1  S_1  

 **************************************************************************

 **************************************************************************

                    xk=(   0.41000,   0.41000,   0.00000  )

     Band symmetry, C_2v (mm2)  point group:

     e(  1 -  1) =    -23.76475  eV     1   --> A_1  D_1  S_1  
     e(  2 -  2) =    -11.32546  eV     1   --> A_1  D_1  S_1  
     e(  3 -  3) =     -7.87904  eV     1   --> B_2  D_4  S_4  
     e(  4 -  4) =     -7.83770  eV     1   --> B_1  D_3  S_3  
     e(  5 -  5) =     -7.81433  eV     1   --> A_1  D_1  S_1  
     e(  6 -  6) =      0.17065  eV     1   --> A_1  D_1  S_1  
     e(  7 -  7) =      0.55402  eV     1   --> B_1  D_3  S_3  
     e(  8 -  8) =      0.63736  eV     1   --> B_2  D_4  S_4  
     e(  9 -  9) =      6.79452  eV     1   --> A_1  D_1  S_1  
     e( 10 - 10) =      7.75915  eV     1   --> B_2  D_4  S_4  
     e( 11 - 11) =      8.93113  eV     1   --> A_2  D_2  S_2  
     e( 12 - 12) =      9.58349  eV     1   --> A_1  D_1  S_1  
     e( 13 - 13) =      9.65137  eV     1   --> A_1  D_1  S_1  
     e( 14 - 14) =     10.53705  eV     1   --> B_1  D_3  S_3  
     e( 15 - 15) =     11.68500  eV     1   --> A_1  D_1  S_1  
     e( 16 - 16) =     13.19776  eV     1   --> B_1  D_3  S_3  
     e( 17 - 17) =     13.33918  eV     1   --> B_2  D_4  S_4  
     e( 18 - 18) =     14.16700  eV     1   --> A_1  D_1  S_1  
     e( 19 - 19) =     14.87109  eV     1   --> A_2  D_2  S_2  
     e( 20 - 20) =     14.99713  eV     1   --> B_2  D_4  S_4  
     e( 21 - 21) =     17.03135  eV     1   --> B_2  D_4  S_4  
     e( 22 - 22) =     17.16640  eV     1   --> A_1  D_1  S_1  
     e( 23 - 23) =     17.33497  eV     1   --> B_1  D_3  S_3  
     e( 24 - 24) =     18.95352  eV     1   --> A_1  D_1  S_1  

 **************************************************************************

 **************************************************************************

                    xk=(   0.42000,   0.42000,   0.00000  )

     Band symmetry, C_2v (mm2)  point group:

     e(  1 -  1) =    -23.76459  eV     1   --> A_1  D_1  S_1  
     e(  2 -  2) =    -11.32527  eV     1   --> A_1  D_1  S_1  
     e(  3 -  3) =     -7.88101  eV     1   --> B_2  D_4  S_4  
     e(  4 -  4) =     -7.83822  eV     1   --> B_1  D_3  S_3  
     e(  5 -  5) =     -7.81446  eV     1   --> A_1  D_1  S_1  
     e(  6 -  6) =      0.16103  eV     1   --> A_1  D_1  S_1  
     e(  7 -  7) =      0.54873  eV     1   --> B_1  D_3  S_3  
     e(  8 -  8) =      0.63028  eV     1   --> B_2  D_4  S_4  
     e(  9 -  9) =      6.85474  eV     1   --> A_1  D_1  S_1  
     e( 10 - 10) =      7.76834  eV     1   --> B_2  D_4  S_4  
[...]
     e( 22 - 22) =     18.49691  eV     1   --> A_1  D_1  S_1  
     e( 23 - 23) =     18.55485  eV     1   --> B_1  D_3  S_3  
     e( 24 - 24) =     19.21267  eV     1   --> A_1  D_1  S_1  

 **************************************************************************

 **************************************************************************

                    xk=(   0.91000,   0.91000,   0.00000  )

     Band symmetry, C_2v (mm2)  point group:

     e(  1 -  1) =    -23.76151  eV     1   --> A_1  D_1  S_1  
     e(  2 -  2) =    -11.27188  eV     1   --> A_1  D_1  S_1  
     e(  3 -  3) =     -7.97042  eV     1   --> B_2  D_4  S_4  
     e(  4 -  4) =     -7.88830  eV     1   --> B_1  D_3  S_3  
     e(  5 -  5) =     -7.88648  eV     1   --> A_1  D_1  S_1  
     e(  6 -  6) =      0.35969  eV     1   --> B_2  D_4  S_4  
     e(  7 -  7) =      0.60212  eV     1   --> A_1  D_1  S_1  
     e(  8 -  8) =      0.63648  eV     1   --> B_1  D_3  S_3  
     e(  9 -  9) =      6.57315  eV     1   --> A_1  D_1  S_1  
     e( 10 - 10) =      7.80192  eV     1   --> A_1  D_1  S_1  
     e( 11 - 11) =      9.47189  eV     1   --> B_2  D_4  S_4  
     e( 12 - 12) =      9.87776  eV     1   --> A_1  D_1  S_1  
     e( 13 - 13) =      9.96508  eV     1   --> B_1  D_3  S_3  
     e( 14 - 14) =     11.25840  eV     1   --> A_2  D_2  S_2  
     e( 15 - 15) =     11.53191  eV     1   --> B_2  D_4  S_4  
     e( 16 - 16) =     12.77313  eV     1   --> A_1  D_1  S_1  
     e( 17 - 17) =     12.79793  eV     1   --> B_1  D_3  S_3  
     e( 18 - 18) =     14.26146  eV     1   --> A_2  D_2  S_2  
     e( 19 - 19) =     14.48039  eV     1   --> B_2  D_4  S_4  
     e( 20 - 20) =     15.83497  eV     1   --> A_1  D_1  S_1  
     e( 21 - 21) =     16.38212  eV     1   --> A_2  D_2  S_2  
     e( 22 - 22) =     18.55586  eV     1   --> A_1  D_1  S_1  
     e( 23 - 23) =     18.63218  eV     1   --> B_1  D_3  S_3  
     e( 24 - 24) =     19.21209  eV     1   --> A_1  D_1  S_1  

 **************************************************************************

 **************************************************************************

                    xk=(   0.92000,   0.92000,   0.00000  )

     Band symmetry, C_2v (mm2)  point group:

     e(  1 -  1) =    -23.76152  eV     1   --> A_1  D_1  S_1  
     e(  2 -  2) =    -11.27121  eV     1   --> A_1  D_1  S_1  
     e(  3 -  3) =     -7.97111  eV     1   --> B_2  D_4  S_4  
     e(  4 -  4) =     -7.88884  eV     1   --> B_1  D_3  S_3  
     e(  5 -  5) =     -7.88739  eV     1   --> A_1  D_1  S_1  
     e(  6 -  6) =      0.35796  eV     1   --> B_2  D_4  S_4  
     e(  7 -  7) =      0.61176  eV     1   --> A_1  D_1  S_1  
     e(  8 -  8) =      0.63914  eV     1   --> B_1  D_3  S_3  
     e(  9 -  9) =      6.55324  eV     1   --> A_1  D_1  S_1  
     e( 10 - 10) =      7.77470  eV     1   --> A_1  D_1  S_1  
     e( 11 - 11) =      9.50652  eV     1   --> B_2  D_4  S_4  
     e( 12 - 12) =      9.89558  eV     1   --> A_1  D_1  S_1  
     e( 13 - 13) =      9.94565  eV     1   --> B_1  D_3  S_3  
     e( 14 - 14) =     11.27950  eV     1   --> A_2  D_2  S_2  
     e( 15 - 15) =     11.49915  eV     1   --> B_2  D_4  S_4  
     e( 16 - 16) =     12.78648  eV     1   --> A_1  D_1  S_1  
     e( 17 - 17) =     12.80632  eV     1   --> B_1  D_3  S_3  
     e( 18 - 18) =     14.28819  eV     1   --> A_2  D_2  S_2  
     e( 19 - 19) =     14.46788  eV     1   --> B_2  D_4  S_4  
     e( 20 - 20) =     15.85837  eV     1   --> A_1  D_1  S_1  
     e( 21 - 21) =     16.30962  eV     1   --> A_2  D_2  S_2  
     e( 22 - 22) =     18.60897  eV     1   --> A_1  D_1  S_1  
     e( 23 - 23) =     18.70835  eV     1   --> B_1  D_3  S_3  
     e( 24 - 24) =     19.21789  eV     1   --> A_1  D_1  S_1  

 **************************************************************************

 **************************************************************************

                    xk=(   0.93000,   0.93000,   0.00000  )

     Band symmetry, C_2v (mm2)  point group:

     e(  1 -  1) =    -23.76152  eV     1   --> A_1  D_1  S_1  
     e(  2 -  2) =    -11.27060  eV     1   --> A_1  D_1  S_1  
     e(  3 -  3) =     -7.97171  eV     1   --> B_2  D_4  S_4  
     e(  4 -  4) =     -7.88932  eV     1   --> B_1  D_3  S_3  
     e(  5 -  5) =     -7.88820  eV     1   --> A_1  D_1  S_1  
     e(  6 -  6) =      0.35644  eV     1   --> B_2  D_4  S_4  
     e(  7 -  7) =      0.62040  eV     1   --> A_1  D_1  S_1  
     e(  8 -  8) =      0.64152  eV     1   --> B_1  D_3  S_3  
     e(  9 -  9) =      6.53553  eV     1   --> A_1  D_1  S_1  
     e( 10 - 10) =      7.75058  eV     1   --> A_1  D_1  S_1  
     e( 11 - 11) =      9.53834  eV     1   --> B_2  D_4  S_4  
     e( 12 - 12) =      9.91144  eV     1   --> A_1  D_1  S_1  
     e( 13 - 13) =      9.92847  eV     1   --> B_1  D_3  S_3  
     e( 14 - 14) =     11.29819  eV     1   --> A_2  D_2  S_2  
     e( 15 - 15) =     11.46890  eV     1   --> B_2  D_4  S_4  
     e( 16 - 16) =     12.79828  eV     1   --> A_1  D_1  S_1  
     e( 17 - 17) =     12.81363  eV     1   --> B_1  D_3  S_3  
     e( 18 - 18) =     14.31433  eV     1   --> A_2  D_2  S_2  
     e( 19 - 19) =     14.45695  eV     1   --> B_2  D_4  S_4  
     e( 20 - 20) =     15.87852  eV     1   --> A_1  D_1  S_1  
     e( 21 - 21) =     16.24301  eV     1   --> A_2  D_2  S_2  
     e( 22 - 22) =     18.65478  eV     1   --> A_1  D_1  S_1  
     e( 23 - 23) =     18.78251  eV     1   --> B_1  D_3  S_3  
     e( 24 - 24) =     19.23064  eV     1   --> A_1  D_1  S_1  

 **************************************************************************

 **************************************************************************

                    xk=(   0.94000,   0.94000,   0.00000  )

     Band symmetry, C_2v (mm2)  point group:

     e(  1 -  1) =    -23.76152  eV     1   --> A_1  D_1  S_1  
     e(  2 -  2) =    -11.27008  eV     1   --> A_1  D_1  S_1  
     e(  3 -  3) =     -7.97224  eV     1   --> B_2  D_4  S_4  
     e(  4 -  4) =     -7.88973  eV     1   --> B_1  D_3  S_3  
     e(  5 -  5) =     -7.88891  eV     1   --> A_1  D_1  S_1  
     e(  6 -  6) =      0.35512  eV     1   --> B_2  D_4  S_4  
     e(  7 -  7) =      0.62798  eV     1   --> A_1  D_1  S_1  
     e(  8 -  8) =      0.64360  eV     1   --> B_1  D_3  S_3  
     e(  9 -  9) =      6.52009  eV     1   --> A_1  D_1  S_1  
     e( 10 - 10) =      7.72960  eV     1   --> A_1  D_1  S_1  
     e( 11 - 11) =      9.56698  eV     1   --> B_2  D_4  S_4  
     e( 12 - 12) =      9.91355  eV     1   --> B_1  D_3  S_3  
     e( 13 - 13) =      9.92529  eV     1   --> A_1  D_1  S_1  
     e( 14 - 14) =     11.31444  eV     1   --> A_2  D_2  S_2  
     e( 15 - 15) =     11.44158  eV     1   --> B_2  D_4  S_4  
     e( 16 - 16) =     12.80851  eV     1   --> A_1  D_1  S_1  
     e( 17 - 17) =     12.81990  eV     1   --> B_1  D_3  S_3  
     e( 18 - 18) =     14.33921  eV     1   --> A_2  D_2  S_2  
     e( 19 - 19) =     14.44757  eV     1   --> B_2  D_4  S_4  
     e( 20 - 20) =     15.89557  eV     1   --> A_1  D_1  S_1  
     e( 21 - 21) =     16.18298  eV     1   --> A_2  D_2  S_2  
     e( 22 - 22) =     18.69233  eV     1   --> A_1  D_1  S_1  
     e( 23 - 23) =     18.85351  eV     1   --> B_1  D_3  S_3  
     e( 24 - 24) =     19.25011  eV     1   --> A_1  D_1  S_1  

 **************************************************************************

 **************************************************************************

                    xk=(   0.95000,   0.95000,   0.00000  )

     Band symmetry, C_2v (mm2)  point group:

     e(  1 -  1) =    -23.76152  eV     1   --> A_1  D_1  S_1  
     e(  2 -  2) =    -11.26963  eV     1   --> A_1  D_1  S_1  
     e(  3 -  3) =     -7.97269  eV     1   --> B_2  D_4  S_4  
     e(  4 -  4) =     -7.89008  eV     1   --> B_1  D_3  S_3  
     e(  5 -  5) =     -7.88951  eV     1   --> A_1  D_1  S_1  
     e(  6 -  6) =      0.35400  eV     1   --> B_2  D_4  S_4  
     e(  7 -  7) =      0.63448  eV     1   --> A_1  D_1  S_1  
     e(  8 -  8) =      0.64539  eV     1   --> B_1  D_3  S_3  
     e(  9 -  9) =      6.50696  eV     1   --> A_1  D_1  S_1  
     e( 10 - 10) =      7.71179  eV     1   --> A_1  D_1  S_1  
     e( 11 - 11) =      9.59207  eV     1   --> B_2  D_4  S_4  
     e( 12 - 12) =      9.90090  eV     1   --> B_1  D_3  S_3  
     e( 13 - 13) =      9.93708  eV     1   --> A_1  D_1  S_1  
     e( 14 - 14) =     11.32822  eV     1   --> A_2  D_2  S_2  
     e( 15 - 15) =     11.41758  eV     1   --> B_2  D_4  S_4  
     e( 16 - 16) =     12.81719  eV     1   --> A_1  D_1  S_1  
     e( 17 - 17) =     12.82516  eV     1   --> B_1  D_3  S_3  
     e( 18 - 18) =     14.36214  eV     1   --> A_2  D_2  S_2  
     e( 19 - 19) =     14.43970  eV     1   --> B_2  D_4  S_4  
     e( 20 - 20) =     15.90967  eV     1   --> A_1  D_1  S_1  
     e( 21 - 21) =     16.13028  eV     1   --> A_2  D_2  S_2  
     e( 22 - 22) =     18.72147  eV     1   --> A_1  D_1  S_1  
     e( 23 - 23) =     18.91991  eV     1   --> B_1  D_3  S_3  
     e( 24 - 24) =     19.27490  eV     1   --> A_1  D_1  S_1  

 **************************************************************************

 **************************************************************************

                    xk=(   0.96000,   0.96000,   0.00000  )

     Band symmetry, C_2v (mm2)  point group:

     e(  1 -  1) =    -23.76152  eV     1   --> A_1  D_1  S_1  
     e(  2 -  2) =    -11.26926  eV     1   --> A_1  D_1  S_1  
     e(  3 -  3) =     -7.97306  eV     1   --> B_2  D_4  S_4  
     e(  4 -  4) =     -7.89038  eV     1   --> B_1  D_3  S_3  
     e(  5 -  5) =     -7.89001  eV     1   --> A_1  D_1  S_1  
     e(  6 -  6) =      0.35308  eV     1   --> B_2  D_4  S_4  
     e(  7 -  7) =      0.63984  eV     1   --> A_1  D_1  S_1  
     e(  8 -  8) =      0.64686  eV     1   --> B_1  D_3  S_3  
     e(  9 -  9) =      6.49616  eV     1   --> A_1  D_1  S_1  
     e( 10 - 10) =      7.69718  eV     1   --> A_1  D_1  S_1  
     e( 11 - 11) =      9.61322  eV     1   --> B_2  D_4  S_4  
     e( 12 - 12) =      9.89053  eV     1   --> B_1  D_3  S_3  
     e( 13 - 13) =      9.94678  eV     1   --> A_1  D_1  S_1  
     e( 14 - 14) =     11.33951  eV     1   --> A_2  D_2  S_2  
     e( 15 - 15) =     11.39729  eV     1   --> B_2  D_4  S_4  
     e( 16 - 16) =     12.82429  eV     1   --> A_1  D_1  S_1  
     e( 17 - 17) =     12.82942  eV     1   --> B_1  D_3  S_3  
     e( 18 - 18) =     14.38235  eV     1   --> A_2  D_2  S_2  
     e( 19 - 19) =     14.43331  eV     1   --> B_2  D_4  S_4  
     e( 20 - 20) =     15.92099  eV     1   --> A_1  D_1  S_1  
     e( 21 - 21) =     16.08567  eV     1   --> A_2  D_2  S_2  
     e( 22 - 22) =     18.74286  eV     1   --> A_1  D_1  S_1  
     e( 23 - 23) =     18.97981  eV     1   --> B_1  D_3  S_3  
     e( 24 - 24) =     19.30244  eV     1   --> A_1  D_1  S_1  

 **************************************************************************

 **************************************************************************

                    xk=(   0.97000,   0.97000,   0.00000  )

     Band symmetry, C_2v (mm2)  point group:

     e(  1 -  1) =    -23.76152  eV     1   --> A_1  D_1  S_1  
     e(  2 -  2) =    -11.26897  eV     1   --> A_1  D_1  S_1  
     e(  3 -  3) =     -7.97335  eV     1   --> B_2  D_4  S_4  
     e(  4 -  4) =     -7.89061  eV     1   --> B_1  D_3  S_3  
     e(  5 -  5) =     -7.89040  eV     1   --> A_1  D_1  S_1  
     e(  6 -  6) =      0.35237  eV     1   --> B_2  D_4  S_4  
     e(  7 -  7) =      0.64405  eV     1   --> A_1  D_1  S_1  
     e(  8 -  8) =      0.64801  eV     1   --> B_1  D_3  S_3  
     e(  9 -  9) =      6.48773  eV     1   --> A_1  D_1  S_1  
     e( 10 - 10) =      7.68579  eV     1   --> A_1  D_1  S_1  
     e( 11 - 11) =      9.63009  eV     1   --> B_2  D_4  S_4  
     e( 12 - 12) =      9.88246  eV     1   --> B_1  D_3  S_3  
     e( 13 - 13) =      9.95436  eV     1   --> A_1  D_1  S_1  
     e( 14 - 14) =     11.34831  eV     1   --> A_2  D_2  S_2  
     e( 15 - 15) =     11.38108  eV     1   --> B_2  D_4  S_4  
     e( 16 - 16) =     12.82982  eV     1   --> A_1  D_1  S_1  
     e( 17 - 17) =     12.83272  eV     1   --> B_1  D_3  S_3  
     e( 18 - 18) =     14.39909  eV     1   --> A_2  D_2  S_2  
     e( 19 - 19) =     14.42837  eV     1   --> B_2  D_4  S_4  
     e( 20 - 20) =     15.92964  eV     1   --> A_1  D_1  S_1  
     e( 21 - 21) =     16.04995  eV     1   --> A_2  D_2  S_2  
     e( 22 - 22) =     18.75768  eV     1   --> A_1  D_1  S_1  
     e( 23 - 23) =     19.03087  eV     1   --> B_1  D_3  S_3  
     e( 24 - 24) =     19.32936  eV     1   --> A_1  D_1  S_1  

 **************************************************************************

 **************************************************************************

                    xk=(   0.98000,   0.98000,   0.00000  )

     Band symmetry, C_2v (mm2)  point group:

     e(  1 -  1) =    -23.76152  eV     1   --> A_1  D_1  S_1  
     e(  2 -  2) =    -11.26877  eV     1   --> A_1  D_1  S_1  
     e(  3 -  3) =     -7.97355  eV     1   --> B_2  D_4  S_4  
     e(  4 -  5) =     -7.89077  eV     2   --> A_1  D_1  S_1  
     e(  4 -  5) =     -7.89077  eV     2   --> B_1  D_3  S_3  
     e(  6 -  6) =      0.35186  eV     1   --> B_2  D_4  S_4  
     e(  7 -  7) =      0.64707  eV     1   --> A_1  D_1  S_1  
     e(  8 -  8) =      0.64883  eV     1   --> B_1  D_3  S_3  
     e(  9 -  9) =      6.48170  eV     1   --> A_1  D_1  S_1  
     e( 10 - 10) =      7.67764  eV     1   --> A_1  D_1  S_1  
     e( 11 - 11) =      9.64237  eV     1   --> B_2  D_4  S_4  
     e( 12 - 12) =      9.87669  eV     1   --> B_1  D_3  S_3  
     e( 13 - 13) =      9.95979  eV     1   --> A_1  D_1  S_1  
     e( 14 - 14) =     11.35460  eV     1   --> A_2  D_2  S_2  
     e( 15 - 15) =     11.36925  eV     1   --> B_2  D_4  S_4  
     e( 16 - 16) =     12.83377  eV     1   --> A_1  D_1  S_1  
     e( 17 - 17) =     12.83507  eV     1   --> B_1  D_3  S_3  
     e( 18 - 18) =     14.41163  eV     1   --> A_2  D_2  S_2  
     e( 19 - 19) =     14.42486  eV     1   --> B_2  D_4  S_4  
     e( 20 - 20) =     15.93574  eV     1   --> A_1  D_1  S_1  
     e( 21 - 21) =     16.02383  eV     1   --> A_2  D_2  S_2  
     e( 22 - 22) =     18.76721  eV     1   --> A_1  D_1  S_1  
     e( 23 - 23) =     19.07037  eV     1   --> B_1  D_3  S_3  
     e( 24 - 24) =     19.35202  eV     1   --> A_1  D_1  S_1  

 **************************************************************************

 **************************************************************************

                    xk=(   0.99000,   0.99000,   0.00000  )

     Band symmetry, C_2v (mm2)  point group:

     e(  1 -  1) =    -23.76153  eV     1   --> A_1  D_1  S_1  
     e(  2 -  2) =    -11.26864  eV     1   --> A_1  D_1  S_1  
     e(  3 -  3) =     -7.97367  eV     1   --> B_2  D_4  S_4  
     e(  4 -  5) =     -7.89087  eV     2   --> A_1  D_1  S_1  
     e(  4 -  5) =     -7.89087  eV     2   --> B_1  D_3  S_3  
     e(  6 -  6) =      0.35156  eV     1   --> B_2  D_4  S_4  
     e(  7 -  7) =      0.64889  eV     1   --> A_1  D_1  S_1  
     e(  8 -  8) =      0.64933  eV     1   --> B_1  D_3  S_3  
     e(  9 -  9) =      6.47807  eV     1   --> A_1  D_1  S_1  
     e( 10 - 10) =      7.67275  eV     1   --> A_1  D_1  S_1  
     e( 11 - 11) =      9.64984  eV     1   --> B_2  D_4  S_4  
     e( 12 - 12) =      9.87322  eV     1   --> B_1  D_3  S_3  
     e( 13 - 13) =      9.96305  eV     1   --> A_1  D_1  S_1  
     e( 14 - 14) =     11.35838  eV     1   --> A_2  D_2  S_2  
     e( 15 - 15) =     11.36205  eV     1   --> B_2  D_4  S_4  
     e( 16 - 16) =     12.83615  eV     1   --> A_1  D_1  S_1  
     e( 17 - 17) =     12.83647  eV     1   --> B_1  D_3  S_3  
     e( 18 - 18) =     14.41942  eV     1   --> A_2  D_2  S_2  
     e( 19 - 19) =     14.42276  eV     1   --> B_2  D_4  S_4  
     e( 20 - 20) =     15.93936  eV     1   --> A_1  D_1  S_1  
     e( 21 - 21) =     16.00790  eV     1   --> A_2  D_2  S_2  
     e( 22 - 22) =     18.77248  eV     1   --> A_1  D_1  S_1  
     e( 23 - 23) =     19.09553  eV     1   --> B_1  D_3  S_3  
     e( 24 - 24) =     19.36715  eV     1   --> A_1  D_1  S_1  

 **************************************************************************

 **************************************************************************

                    xk=(   1.00000,   1.00000,   0.00000  )

     point group D_4h(4/mmm)
     there are 10 classes
     the character table:

       E     2C4   C2    2C2'  2C2'' i     2S4   s_h   2s_v  2s_d 
A_1g   1.00  1.00  1.00  1.00  1.00  1.00  1.00  1.00  1.00  1.00
A_2g   1.00  1.00  1.00 -1.00 -1.00  1.00  1.00  1.00 -1.00 -1.00
B_1g   1.00 -1.00  1.00  1.00 -1.00  1.00 -1.00  1.00  1.00 -1.00
B_2g   1.00 -1.00  1.00 -1.00  1.00  1.00 -1.00  1.00 -1.00  1.00
E_g    2.00  0.00 -2.00  0.00  0.00  2.00  0.00 -2.00  0.00  0.00
A_1u   1.00  1.00  1.00  1.00  1.00 -1.00 -1.00 -1.00 -1.00 -1.00
A_2u   1.00  1.00  1.00 -1.00 -1.00 -1.00 -1.00 -1.00  1.00  1.00
B_1u   1.00 -1.00  1.00  1.00 -1.00 -1.00  1.00 -1.00 -1.00  1.00
B_2u   1.00 -1.00  1.00 -1.00  1.00 -1.00  1.00 -1.00  1.00 -1.00
E_u    2.00  0.00 -2.00  0.00  0.00 -2.00  0.00  2.00  0.00  0.00

     the symmetry operations in each class and the name of the first element:

     E        1
                                                                 
     2C4      7    8
                                                                 
     C2       2
                                                                 
     2C2'     3    4
                                                                 
     2C2''    5    6
                                                                 
     i        9
                                                                 
     2S4     15   16
                                                                 
     s_h     10
                                                                 
     2s_v    11   12
                                                                 
     2s_d    13   14
                                                                 

     Band symmetry, D_4h(4/mmm) point group:

     e(  1 -  1) =    -23.76152  eV     1   --> A_1g X_1  M_1  
     e(  2 -  2) =    -11.26860  eV     1   --> A_1g X_1  M_1  
     e(  3 -  3) =     -7.97371  eV     1   --> A_2u X_4' M_4' 
     e(  4 -  5) =     -7.89090  eV     2   --> E_u  X_5' M_5' 
     e(  6 -  6) =      0.35145  eV     1   --> A_2u X_4' M_4' 
     e(  7 -  8) =      0.64949  eV     2   --> E_u  X_5' M_5' 
     e(  9 -  9) =      6.47686  eV     1   --> B_2g X_3  M_3  
     e( 10 - 10) =      7.67111  eV     1   --> A_1g X_1  M_1  
     e( 11 - 11) =      9.65235  eV     1   --> A_2u X_4' M_4' 
     e( 12 - 12) =      9.87207  eV     1   --> B_1g X_2  M_2  
     e( 13 - 13) =      9.96414  eV     1   --> A_1g X_1  M_1  
     e( 14 - 15) =     11.35963  eV     2   --> E_g  X_5  M_5  
     e( 16 - 17) =     12.83694  eV     2   --> E_u  X_5' M_5' 
     e( 18 - 19) =     14.42206  eV     2   --> E_g  X_5  M_5  
     e( 20 - 20) =     15.94057  eV     1   --> B_2g X_3  M_3  
     e( 21 - 21) =     16.00254  eV     1   --> B_2u X_3' M_3' 
     e( 22 - 22) =     18.77416  eV     1   --> A_1g X_1  M_1  
     e( 23 - 23) =     19.10420  eV     1   --> B_1g X_2  M_2  
     e( 24 - 24) =     19.37248  eV     1   --> B_2g X_3  M_3  

 **************************************************************************
 
     BANDS        :     13.42s CPU     14.21s WALL

 
   This run was terminated on:  12: 6:45  23Jun2022            

=------------------------------------------------------------------------------=
   JOB DONE.
=------------------------------------------------------------------------------=
