
     Program BANDS v.6.6 starts on 23Jun2022 at 12: 7: 6 

     This program is part of the open-source Quantum ESPRESSO suite
     for quantum simulation of materials; please cite
         "P. Giannozzi et al., J. Phys.:Condens. Matter 21 395502 (2009);
         "P. Giannozzi et al., J. Phys.:Condens. Matter 29 465901 (2017);
          URL http://www.quantum-espresso.org", 
     in publications or presentations arising from this work. More details at
     http://www.quantum-espresso.org/quote

     Parallel version (MPI), running on    40 processors

     MPI processes distributed on     1 nodes
     R & G space division:  proc/nbgrp/npool/nimage =      40
     Fft bands division:     nmany     =       1

     Reading xml data from directory:

     ./rbbr.save/
     file Rb.pbe-spn-kjpaw_psl.1.0.0.UPF: wavefunction(s)  4S renormalized
     file Br.pbe-n-kjpaw_psl.1.0.0.UPF: wavefunction(s)  4S 4P renormalized

     IMPORTANT: XC functional enforced from input :
     Exchange-correlation= PBE
                           (   1   4   3   4   0   0   0)
     Any further DFT definition will be discarded
     Please, verify this is what you really want

 
     Parallelization info
     --------------------
     sticks:   dense  smooth     PW     G-vecs:    dense   smooth      PW
     Min          39      39     10                 1049     1049     151
     Max          40      40     11                 1054     1054     156
     Sum        1597    1597    439                42087    42087    6183
 

     Check: negative core charge=   -0.000002
     Reading collected, re-writing distributed wavefunctions
     high-symmetry point:  0.0000 0.0000 0.0000   x coordinate   0.0000
     high-symmetry point:  0.5000 0.5000 0.5000   x coordinate   0.8660

     Plottable bands (eV) written to file seg3.dat.gnu
     Bands written to file seg3.dat

 **************************************************************************

                    xk=(   0.00000,   0.00000,   0.00000  )

     point group O_h (m-3m) 
     there are 10 classes
     the character table:

       E     8C3   3C2   6C4   6C2'  i     8S6   3s_h  6S4   6s_d 
A_1g   1.00  1.00  1.00  1.00  1.00  1.00  1.00  1.00  1.00  1.00
A_2g   1.00  1.00  1.00 -1.00 -1.00  1.00  1.00  1.00 -1.00 -1.00
E_g    2.00 -1.00  2.00  0.00  0.00  2.00 -1.00  2.00  0.00  0.00
T_1g   3.00  0.00 -1.00  1.00 -1.00  3.00  0.00 -1.00  1.00 -1.00
T_2g   3.00  0.00 -1.00 -1.00  1.00  3.00  0.00 -1.00 -1.00  1.00
A_1u   1.00  1.00  1.00  1.00  1.00 -1.00 -1.00 -1.00 -1.00 -1.00
A_2u   1.00  1.00  1.00 -1.00 -1.00 -1.00 -1.00 -1.00  1.00  1.00
E_u    2.00 -1.00  2.00  0.00  0.00 -2.00  1.00 -2.00  0.00  0.00
T_1u   3.00  0.00 -1.00  1.00 -1.00 -3.00  0.00  1.00 -1.00  1.00
T_2u   3.00  0.00 -1.00 -1.00  1.00 -3.00  0.00  1.00  1.00 -1.00

     the symmetry operations in each class and the name of the first element:

     E        1
                                                                 
     8C3     17   19   20   18   24   21   22   23
                                                                 
     3C2      2    4    3
                                                                 
     6C4      7    8   15   16   12   11
                                                                 
     6C2'     5    6   14   13   10    9
                                                                 
     i       25
                                                                 
     8S6     41   43   44   42   48   45   46   47
                                                                 
     3s_h    26   28   27
                                                                 
     6S4     31   32   39   40   36   35
                                                                 
     6s_d    29   30   38   37   34   33
                                                                 

     Band symmetry, O_h (m-3m)  point group:

     e(  1 -  1) =    -23.76974  eV     1   --> A_1g G_1   G_1+
     e(  2 -  2) =    -11.31354  eV     1   --> A_1g G_1   G_1+
     e(  3 -  5) =     -7.83633  eV     3   --> T_1u G_15  G_4-
     e(  6 -  8) =      0.80296  eV     3   --> T_1u G_15  G_4-
     e(  9 -  9) =      4.99689  eV     1   --> A_1g G_1   G_1+
     e( 10 - 12) =      8.05863  eV     3   --> T_2g G_25' G_5+
     e( 13 - 14) =      8.90028  eV     2   --> E_g  G_12  G_3+
     e( 15 - 15) =     11.61627  eV     1   --> A_2u G_2'  G_2-
     e( 16 - 18) =     16.12466  eV     3   --> T_2g G_25' G_5+
     e( 19 - 21) =     16.25698  eV     3   --> T_1u G_15  G_4-
     e( 22 - 23) =     18.93986  eV     2   --> E_g  G_12  G_3+
     e( 24 - 24) =     19.01394  eV     1   -->   ?

 **************************************************************************

 **************************************************************************

                    xk=(   0.00500,   0.00500,   0.00500  )

     point group C_3v (3m)  
     there are  3 classes
     the character table:

       E     2C3   3s_v 
A_1    1.00  1.00  1.00
A_2    1.00  1.00 -1.00
E      2.00 -1.00  0.00

     the symmetry operations in each class and the name of the first element:

     E        1
                                                                 
     2C3      2    3
                                                                 
     3s_v     4    5    6
                                                                 

     Band symmetry, C_3v (3m)   point group:

     e(  1 -  1) =    -23.76974  eV     1   --> A_1  L_1       
     e(  2 -  2) =    -11.31354  eV     1   --> A_1  L_1       
     e(  3 -  5) =     -7.83633  eV     3   --> A_1  L_1       
     e(  3 -  5) =     -7.83633  eV     3   --> E    L_3       
     e(  6 -  6) =      0.80267  eV     1   --> A_1  L_1       
     e(  7 -  8) =      0.80288  eV     2   --> E    L_3       
     e(  9 -  9) =      4.99748  eV     1   --> A_1  L_1       
     e( 10 - 10) =      8.05841  eV     1   --> A_1  L_1       
     e( 11 - 12) =      8.05891  eV     2   --> E    L_3       
     e( 13 - 14) =      8.90062  eV     2   --> E    L_3       
     e( 15 - 15) =     11.61722  eV     1   --> A_1  L_1       
     e( 16 - 16) =     16.10302  eV     1   --> A_1  L_1       
     e( 17 - 18) =     16.11822  eV     2   --> E    L_3       
     e( 19 - 20) =     16.26213  eV     2   --> E    L_3       
     e( 21 - 21) =     16.27729  eV     1   --> A_1  L_1       
     e( 22 - 23) =     18.92603  eV     2   --> E    L_3       
     e( 24 - 24) =     19.01238  eV     1   --> A_1  L_1       

 **************************************************************************

 **************************************************************************

                    xk=(   0.01000,   0.01000,   0.01000  )

     Band symmetry, C_3v (3m)   point group:

     e(  1 -  1) =    -23.76974  eV     1   --> A_1  L_1       
     e(  2 -  2) =    -11.31357  eV     1   --> A_1  L_1       
     e(  3 -  5) =     -7.83633  eV     3   --> A_1  L_1       
     e(  3 -  5) =     -7.83633  eV     3   --> E    L_3       
     e(  6 -  6) =      0.80180  eV     1   --> A_1  L_1       
     e(  7 -  8) =      0.80264  eV     2   --> E    L_3       
     e(  9 -  9) =      4.99926  eV     1   --> A_1  L_1       
     e( 10 - 10) =      8.05778  eV     1   --> A_1  L_1       
     e( 11 - 12) =      8.05975  eV     2   --> E    L_3       
     e( 13 - 14) =      8.90163  eV     2   --> E    L_3       
     e( 15 - 15) =     11.62007  eV     1   --> A_1  L_1       
     e( 16 - 16) =     16.05693  eV     1   --> A_1  L_1       
     e( 17 - 18) =     16.10120  eV     2   --> E    L_3       
     e( 19 - 20) =     16.27528  eV     2   --> E    L_3       
     e( 21 - 21) =     16.31939  eV     1   --> A_1  L_1       
     e( 22 - 23) =     18.89839  eV     2   --> E    L_3       
     e( 24 - 24) =     19.00771  eV     1   --> A_1  L_1       

 **************************************************************************

 **************************************************************************

                    xk=(   0.01500,   0.01500,   0.01500  )

     Band symmetry, C_3v (3m)   point group:

     e(  1 -  1) =    -23.76973  eV     1   --> A_1  L_1       
     e(  2 -  2) =    -11.31360  eV     1   --> A_1  L_1       
     e(  3 -  5) =     -7.83634  eV     3   --> A_1  L_1       
     e(  3 -  5) =     -7.83634  eV     3   --> E    L_3       
     e(  6 -  6) =      0.80035  eV     1   --> A_1  L_1       
     e(  7 -  8) =      0.80225  eV     2   --> E    L_3       
     e(  9 -  9) =      5.00223  eV     1   --> A_1  L_1       
     e( 10 - 10) =      8.05672  eV     1   --> A_1  L_1       
     e( 11 - 12) =      8.06115  eV     2   --> E    L_3       
     e( 13 - 14) =      8.90332  eV     2   --> E    L_3       
     e( 15 - 15) =     11.62481  eV     1   --> A_1  L_1       
     e( 16 - 16) =     16.00260  eV     1   --> A_1  L_1       
     e( 17 - 18) =     16.07751  eV     2   --> E    L_3       
     e( 19 - 20) =     16.29253  eV     2   --> E    L_3       
     e( 21 - 21) =     16.36708  eV     1   --> A_1  L_1       
     e( 22 - 23) =     18.86755  eV     2   --> E    L_3       
     e( 24 - 24) =     18.99997  eV     1   --> A_1  L_1       

 **************************************************************************

 **************************************************************************

                    xk=(   0.02000,   0.02000,   0.02000  )

     Band symmetry, C_3v (3m)   point group:

     e(  1 -  1) =    -23.76972  eV     1   --> A_1  L_1       
     e(  2 -  2) =    -11.31365  eV     1   --> A_1  L_1       
     e(  3 -  4) =     -7.83635  eV     2   --> E    L_3       
     e(  5 -  5) =     -7.83620  eV     1   --> A_1  L_1       
     e(  6 -  6) =      0.79833  eV     1   --> A_1  L_1       
     e(  7 -  8) =      0.80170  eV     2   --> E    L_3       
     e(  9 -  9) =      5.00639  eV     1   --> A_1  L_1       
     e( 10 - 10) =      8.05524  eV     1   --> A_1  L_1       
     e( 11 - 12) =      8.06312  eV     2   --> E    L_3       
     e( 13 - 14) =      8.90569  eV     2   --> E    L_3       
     e( 15 - 15) =     11.63145  eV     1   --> A_1  L_1       
     e( 16 - 16) =     15.94466  eV     1   --> A_1  L_1       
     e( 17 - 18) =     16.04973  eV     2   --> E    L_3       
     e( 19 - 20) =     16.31130  eV     2   --> E    L_3       
     e( 21 - 21) =     16.41573  eV     1   --> A_1  L_1       
     e( 22 - 23) =     18.83614  eV     2   --> E    L_3       
     e( 24 - 24) =     18.98925  eV     1   --> A_1  L_1       

 **************************************************************************

 **************************************************************************

                    xk=(   0.02500,   0.02500,   0.02500  )

     Band symmetry, C_3v (3m)   point group:

     e(  1 -  1) =    -23.76970  eV     1   --> A_1  L_1       
     e(  2 -  2) =    -11.31371  eV     1   --> A_1  L_1       
     e(  3 -  4) =     -7.83637  eV     2   --> E    L_3       
     e(  5 -  5) =     -7.83613  eV     1   --> A_1  L_1       
     e(  6 -  6) =      0.79574  eV     1   --> A_1  L_1       
     e(  7 -  8) =      0.80099  eV     2   --> E    L_3       
     e(  9 -  9) =      5.01172  eV     1   --> A_1  L_1       
     e( 10 - 10) =      8.05336  eV     1   --> A_1  L_1       
     e( 11 - 12) =      8.06565  eV     2   --> E    L_3       
     e( 13 - 14) =      8.90872  eV     2   --> E    L_3       
     e( 15 - 15) =     11.63996  eV     1   --> A_1  L_1       
     e( 16 - 16) =     15.88457  eV     1   --> A_1  L_1       
     e( 17 - 18) =     16.01918  eV     2   --> E    L_3       
     e( 19 - 20) =     16.33022  eV     2   --> E    L_3       
     e( 21 - 21) =     16.46388  eV     1   --> A_1  L_1       
     e( 22 - 23) =     18.80498  eV     2   --> E    L_3       
     e( 24 - 24) =     18.97563  eV     1   --> A_1  L_1       

 **************************************************************************

 **************************************************************************

                    xk=(   0.03000,   0.03000,   0.03000  )

     Band symmetry, C_3v (3m)   point group:

     e(  1 -  1) =    -23.76969  eV     1   --> A_1  L_1       
     e(  2 -  2) =    -11.31379  eV     1   --> A_1  L_1       
     e(  3 -  4) =     -7.83639  eV     2   --> E    L_3       
     e(  5 -  5) =     -7.83605  eV     1   --> A_1  L_1       
     e(  6 -  6) =      0.79258  eV     1   --> A_1  L_1       
     e(  7 -  8) =      0.80012  eV     2   --> E    L_3       
     e(  9 -  9) =      5.01822  eV     1   --> A_1  L_1       
     e( 10 - 10) =      8.05109  eV     1   --> A_1  L_1       
     e( 11 - 12) =      8.06873  eV     2   --> E    L_3       
     e( 13 - 14) =      8.91243  eV     2   --> E    L_3       
     e( 15 - 15) =     11.65034  eV     1   --> A_1  L_1       
     e( 16 - 16) =     15.82294  eV     1   --> A_1  L_1       
     e( 17 - 18) =     15.98658  eV     2   --> E    L_3       
     e( 19 - 20) =     16.34860  eV     2   --> E    L_3       
     e( 21 - 21) =     16.51091  eV     1   --> A_1  L_1       
     e( 22 - 23) =     18.77440  eV     2   --> E    L_3       
     e( 24 - 24) =     18.95926  eV     1   --> A_1  L_1       

 **************************************************************************

 **************************************************************************

                    xk=(   0.03500,   0.03500,   0.03500  )

     Band symmetry, C_3v (3m)   point group:

     e(  1 -  1) =    -23.76966  eV     1   --> A_1  L_1       
     e(  2 -  2) =    -11.31388  eV     1   --> A_1  L_1       
     e(  3 -  4) =     -7.83641  eV     2   --> E    L_3       
     e(  5 -  5) =     -7.83595  eV     1   --> A_1  L_1       
     e(  6 -  6) =      0.78887  eV     1   --> A_1  L_1       
     e(  7 -  8) =      0.79911  eV     2   --> E    L_3       
     e(  9 -  9) =      5.02588  eV     1   --> A_1  L_1       
     e( 10 - 10) =      8.04843  eV     1   --> A_1  L_1       
     e( 11 - 12) =      8.07238  eV     2   --> E    L_3       
     e( 13 - 14) =      8.91682  eV     2   --> E    L_3       
     e( 15 - 15) =     11.66257  eV     1   --> A_1  L_1       
     e( 16 - 16) =     15.76009  eV     1   --> A_1  L_1       
     e( 17 - 18) =     15.95230  eV     2   --> E    L_3       
     e( 19 - 20) =     16.36604  eV     2   --> E    L_3       
     e( 21 - 21) =     16.55651  eV     1   --> A_1  L_1       
     e( 22 - 23) =     18.74460  eV     2   --> E    L_3       
     e( 24 - 24) =     18.94025  eV     1   --> A_1  L_1       

 **************************************************************************

 **************************************************************************

                    xk=(   0.04000,   0.04000,   0.04000  )

     Band symmetry, C_3v (3m)   point group:

     e(  1 -  1) =    -23.76964  eV     1   --> A_1  L_1       
     e(  2 -  2) =    -11.31399  eV     1   --> A_1  L_1       
     e(  3 -  4) =     -7.83644  eV     2   --> E    L_3       
     e(  5 -  5) =     -7.83584  eV     1   --> A_1  L_1       
     e(  6 -  6) =      0.78461  eV     1   --> A_1  L_1       
     e(  7 -  8) =      0.79794  eV     2   --> E    L_3       
     e(  9 -  9) =      5.03470  eV     1   --> A_1  L_1       
     e( 10 - 10) =      8.04540  eV     1   --> A_1  L_1       
     e( 11 - 12) =      8.07658  eV     2   --> E    L_3       
     e( 13 - 14) =      8.92187  eV     2   --> E    L_3       
     e( 15 - 15) =     11.67663  eV     1   --> A_1  L_1       
     e( 16 - 16) =     15.69621  eV     1   --> A_1  L_1       
     e( 17 - 18) =     15.91658  eV     2   --> E    L_3       
     e( 19 - 20) =     16.38229  eV     2   --> E    L_3       
     e( 21 - 21) =     16.60048  eV     1   --> A_1  L_1       
     e( 22 - 23) =     18.71570  eV     2   --> E    L_3       
     e( 24 - 24) =     18.91878  eV     1   --> A_1  L_1       

 **************************************************************************

 **************************************************************************

                    xk=(   0.04500,   0.04500,   0.04500  )

     Band symmetry, C_3v (3m)   point group:

     e(  1 -  1) =    -23.76961  eV     1   --> A_1  L_1       
     e(  2 -  2) =    -11.31411  eV     1   --> A_1  L_1       
     e(  3 -  4) =     -7.83647  eV     2   --> E    L_3       
     e(  5 -  5) =     -7.83571  eV     1   --> A_1  L_1       
     e(  6 -  6) =      0.77981  eV     1   --> A_1  L_1       
     e(  7 -  8) =      0.79661  eV     2   --> E    L_3       
     e(  9 -  9) =      5.04466  eV     1   --> A_1  L_1       
     e( 10 - 10) =      8.04203  eV     1   --> A_1  L_1       
     e( 11 - 12) =      8.08134  eV     2   --> E    L_3       
     e( 13 - 14) =      8.92759  eV     2   --> E    L_3       
     e( 15 - 15) =     11.69250  eV     1   --> A_1  L_1       
     e( 16 - 16) =     15.63145  eV     1   --> A_1  L_1       
     e( 17 - 18) =     15.87956  eV     2   --> E    L_3       
     e( 19 - 20) =     16.39719  eV     2   --> E    L_3       
     e( 21 - 21) =     16.64268  eV     1   --> A_1  L_1       
     e( 22 - 23) =     18.68781  eV     2   --> E    L_3       
     e( 24 - 24) =     18.89500  eV     1   --> A_1  L_1       

 **************************************************************************

 **************************************************************************

                    xk=(   0.05000,   0.05000,   0.05000  )

     Band symmetry, C_3v (3m)   point group:

     e(  1 -  1) =    -23.76959  eV     1   --> A_1  L_1       
     e(  2 -  2) =    -11.31424  eV     1   --> A_1  L_1       
     e(  3 -  4) =     -7.83650  eV     2   --> E    L_3       
     e(  5 -  5) =     -7.83557  eV     1   --> A_1  L_1       
     e(  6 -  6) =      0.77448  eV     1   --> A_1  L_1       
     e(  7 -  8) =      0.79514  eV     2   --> E    L_3       
     e(  9 -  9) =      5.05574  eV     1   --> A_1  L_1       
     e( 10 - 10) =      8.03832  eV     1   --> A_1  L_1       
     e( 11 - 12) =      8.08666  eV     2   --> E    L_3       
     e( 13 - 14) =      8.93398  eV     2   --> E    L_3       
     e( 15 - 15) =     11.71016  eV     1   --> A_1  L_1       
     e( 16 - 16) =     15.56592  eV     1   --> A_1  L_1       
     e( 17 - 18) =     15.84135  eV     2   --> E    L_3       
     e( 19 - 20) =     16.41062  eV     2   --> E    L_3       
     e( 21 - 21) =     16.68299  eV     1   --> A_1  L_1       
     e( 22 - 23) =     18.66100  eV     2   --> E    L_3       
     e( 24 - 24) =     18.86910  eV     1   --> A_1  L_1       

 **************************************************************************

 **************************************************************************

                    xk=(   0.05500,   0.05500,   0.05500  )

     Band symmetry, C_3v (3m)   point group:

     e(  1 -  1) =    -23.76955  eV     1   --> A_1  L_1       
     e(  2 -  2) =    -11.31439  eV     1   --> A_1  L_1       
     e(  3 -  4) =     -7.83654  eV     2   --> E    L_3       
     e(  5 -  5) =     -7.83541  eV     1   --> A_1  L_1       
     e(  6 -  6) =      0.76863  eV     1   --> A_1  L_1       
     e(  7 -  8) =      0.79352  eV     2   --> E    L_3       
     e(  9 -  9) =      5.06795  eV     1   --> A_1  L_1       
     e( 10 - 10) =      8.03430  eV     1   --> A_1  L_1       
     e( 11 - 12) =      8.09254  eV     2   --> E    L_3       
     e( 13 - 14) =      8.94102  eV     2   --> E    L_3       
     e( 15 - 15) =     11.72959  eV     1   --> A_1  L_1       
     e( 16 - 16) =     15.49971  eV     1   --> A_1  L_1       
     e( 17 - 18) =     15.80204  eV     2   --> E    L_3       
     e( 19 - 20) =     16.42246  eV     2   --> E    L_3       
     e( 21 - 21) =     16.72130  eV     1   --> A_1  L_1       
     e( 22 - 23) =     18.63536  eV     2   --> E    L_3       
     e( 24 - 24) =     18.84125  eV     1   --> A_1  L_1       

 **************************************************************************

 **************************************************************************

                    xk=(   0.06000,   0.06000,   0.06000  )

     Band symmetry, C_3v (3m)   point group:

     e(  1 -  1) =    -23.76952  eV     1   --> A_1  L_1       
     e(  2 -  2) =    -11.31455  eV     1   --> A_1  L_1       
     e(  3 -  4) =     -7.83658  eV     2   --> E    L_3       
     e(  5 -  5) =     -7.83524  eV     1   --> A_1  L_1       
     e(  6 -  6) =      0.76228  eV     1   --> A_1  L_1       
     e(  7 -  8) =      0.79175  eV     2   --> E    L_3       
     e(  9 -  9) =      5.08125  eV     1   --> A_1  L_1       
     e( 10 - 10) =      8.02999  eV     1   --> A_1  L_1       
     e( 11 - 12) =      8.09897  eV     2   --> E    L_3       
     e( 13 - 14) =      8.94873  eV     2   --> E    L_3       
     e( 15 - 15) =     11.75076  eV     1   --> A_1  L_1       
     e( 16 - 16) =     15.43292  eV     1   --> A_1  L_1       
     e( 17 - 18) =     15.76167  eV     2   --> E    L_3       
     e( 19 - 20) =     16.43266  eV     2   --> E    L_3       
     e( 21 - 21) =     16.75754  eV     1   --> A_1  L_1       
     e( 22 - 23) =     18.61095  eV     2   --> E    L_3       
     e( 24 - 24) =     18.81164  eV     1   --> A_1  L_1       

 **************************************************************************

 **************************************************************************

                    xk=(   0.06500,   0.06500,   0.06500  )

     Band symmetry, C_3v (3m)   point group:

     e(  1 -  1) =    -23.76948  eV     1   --> A_1  L_1       
     e(  2 -  2) =    -11.31472  eV     1   --> A_1  L_1       
     e(  3 -  4) =     -7.83662  eV     2   --> E    L_3       
     e(  5 -  5) =     -7.83506  eV     1   --> A_1  L_1       
     e(  6 -  6) =      0.75544  eV     1   --> A_1  L_1       
     e(  7 -  8) =      0.78984  eV     2   --> E    L_3       
     e(  9 -  9) =      5.09565  eV     1   --> A_1  L_1       
     e( 10 - 10) =      8.02541  eV     1   --> A_1  L_1       
     e( 11 - 12) =      8.10595  eV     2   --> E    L_3       
     e( 13 - 14) =      8.95710  eV     2   --> E    L_3       
     e( 15 - 15) =     11.77363  eV     1   --> A_1  L_1       
     e( 16 - 16) =     15.36560  eV     1   --> A_1  L_1       
     e( 17 - 18) =     15.72032  eV     2   --> E    L_3       
     e( 19 - 20) =     16.44113  eV     2   --> E    L_3       
     e( 21 - 21) =     16.79159  eV     1   --> A_1  L_1       
     e( 22 - 23) =     18.58783  eV     2   --> E    L_3       
     e( 24 - 24) =     18.78048  eV     1   --> A_1  L_1       

 **************************************************************************

 **************************************************************************

                    xk=(   0.07000,   0.07000,   0.07000  )

     Band symmetry, C_3v (3m)   point group:

     e(  1 -  1) =    -23.76944  eV     1   --> A_1  L_1       
     e(  2 -  2) =    -11.31491  eV     1   --> A_1  L_1       
     e(  3 -  4) =     -7.83667  eV     2   --> E    L_3       
     e(  5 -  5) =     -7.83486  eV     1   --> A_1  L_1       
     e(  6 -  6) =      0.74812  eV     1   --> A_1  L_1       
     e(  7 -  8) =      0.78778  eV     2   --> E    L_3       
     e(  9 -  9) =      5.11111  eV     1   --> A_1  L_1       
     e( 10 - 10) =      8.02059  eV     1   --> A_1  L_1       
     e( 11 - 12) =      8.11349  eV     2   --> E    L_3       
     e( 13 - 14) =      8.96612  eV     2   --> E    L_3       
     e( 15 - 15) =     11.79818  eV     1   --> A_1  L_1       
     e( 16 - 16) =     15.29784  eV     1   --> A_1  L_1       
     e( 17 - 18) =     15.67802  eV     2   --> E    L_3       
     e( 19 - 20) =     16.44781  eV     2   --> E    L_3       
     e( 21 - 21) =     16.82338  eV     1   --> A_1  L_1       
     e( 22 - 23) =     18.56606  eV     2   --> E    L_3       
     e( 24 - 24) =     18.74797  eV     1   --> A_1  L_1       

 **************************************************************************

 **************************************************************************

                    xk=(   0.07500,   0.07500,   0.07500  )

     Band symmetry, C_3v (3m)   point group:

     e(  1 -  1) =    -23.76939  eV     1   --> A_1  L_1       
     e(  2 -  2) =    -11.31511  eV     1   --> A_1  L_1       
     e(  3 -  4) =     -7.83672  eV     2   --> E    L_3       
     e(  5 -  5) =     -7.83464  eV     1   --> A_1  L_1       
     e(  6 -  6) =      0.74033  eV     1   --> A_1  L_1       
     e(  7 -  8) =      0.78559  eV     2   --> E    L_3       
     e(  9 -  9) =      5.12762  eV     1   --> A_1  L_1       
     e( 10 - 10) =      8.01555  eV     1   --> A_1  L_1       
     e( 11 - 12) =      8.12157  eV     2   --> E    L_3       
     e( 13 - 14) =      8.97580  eV     2   --> E    L_3       
     e( 15 - 15) =     11.82438  eV     1   --> A_1  L_1       
     e( 16 - 16) =     15.22971  eV     1   --> A_1  L_1       
     e( 17 - 18) =     15.63481  eV     2   --> E    L_3       
     e( 19 - 20) =     16.45265  eV     2   --> E    L_3       
     e( 21 - 21) =     16.85281  eV     1   --> A_1  L_1       
     e( 22 - 23) =     18.54571  eV     2   --> E    L_3       
     e( 24 - 24) =     18.71433  eV     1   --> A_1  L_1       

 **************************************************************************

 **************************************************************************

                    xk=(   0.08000,   0.08000,   0.08000  )

     Band symmetry, C_3v (3m)   point group:

     e(  1 -  1) =    -23.76935  eV     1   --> A_1  L_1       
     e(  2 -  2) =    -11.31532  eV     1   --> A_1  L_1       
     e(  3 -  4) =     -7.83677  eV     2   --> E    L_3       
     e(  5 -  5) =     -7.83442  eV     1   --> A_1  L_1       
     e(  6 -  6) =      0.73210  eV     1   --> A_1  L_1       
     e(  7 -  8) =      0.78326  eV     2   --> E    L_3       
     e(  9 -  9) =      5.14517  eV     1   --> A_1  L_1       
     e( 10 - 10) =      8.01032  eV     1   --> A_1  L_1       
     e( 11 - 12) =      8.13020  eV     2   --> E    L_3       
     e( 13 - 14) =      8.98612  eV     2   --> E    L_3       
     e( 15 - 15) =     11.85219  eV     1   --> A_1  L_1       
     e( 16 - 16) =     15.16125  eV     1   --> A_1  L_1       
     e( 17 - 18) =     15.59075  eV     2   --> E    L_3       
     e( 19 - 20) =     16.45560  eV     2   --> E    L_3       
     e( 21 - 21) =     16.87977  eV     1   --> A_1  L_1       
     e( 22 - 23) =     18.52680  eV     2   --> E    L_3       
     e( 24 - 24) =     18.67979  eV     1   --> A_1  L_1       

 **************************************************************************

 **************************************************************************

                    xk=(   0.08500,   0.08500,   0.08500  )

     Band symmetry, C_3v (3m)   point group:

     e(  1 -  1) =    -23.76930  eV     1   --> A_1  L_1       
     e(  2 -  2) =    -11.31555  eV     1   --> A_1  L_1       
     e(  3 -  4) =     -7.83683  eV     2   --> E    L_3       
     e(  5 -  5) =     -7.83418  eV     1   --> A_1  L_1       
     e(  6 -  6) =      0.72344  eV     1   --> A_1  L_1       
     e(  7 -  8) =      0.78080  eV     2   --> E    L_3       
     e(  9 -  9) =      5.16374  eV     1   --> A_1  L_1       
     e( 10 - 10) =      8.00492  eV     1   --> A_1  L_1       
     e( 11 - 12) =      8.13938  eV     2   --> E    L_3       
     e( 13 - 14) =      8.99708  eV     2   --> E    L_3       
     e( 15 - 15) =     11.88158  eV     1   --> A_1  L_1       
     e( 16 - 16) =     15.09254  eV     1   --> A_1  L_1       
     e( 17 - 18) =     15.54585  eV     2   --> E    L_3       
     e( 19 - 20) =     16.45662  eV     2   --> E    L_3       
     e( 21 - 21) =     16.90416  eV     1   --> A_1  L_1       
     e( 22 - 23) =     18.50940  eV     2   --> E    L_3       
     e( 24 - 24) =     18.64458  eV     1   --> A_1  L_1       

 **************************************************************************

 **************************************************************************

                    xk=(   0.09000,   0.09000,   0.09000  )

     Band symmetry, C_3v (3m)   point group:

     e(  1 -  1) =    -23.76924  eV     1   --> A_1  L_1       
     e(  2 -  2) =    -11.31578  eV     1   --> A_1  L_1       
     e(  3 -  4) =     -7.83688  eV     2   --> E    L_3       
     e(  5 -  5) =     -7.83392  eV     1   --> A_1  L_1       
     e(  6 -  6) =      0.71436  eV     1   --> A_1  L_1       
     e(  7 -  8) =      0.77820  eV     2   --> E    L_3       
     e(  9 -  9) =      5.18329  eV     1   --> A_1  L_1       
     e( 10 - 10) =      7.99938  eV     1   --> A_1  L_1       
     e( 11 - 12) =      8.14911  eV     2   --> E    L_3       
     e( 13 - 14) =      9.00869  eV     2   --> E    L_3       
     e( 15 - 15) =     11.91251  eV     1   --> A_1  L_1       
     e( 16 - 16) =     15.02363  eV     1   --> A_1  L_1       
     e( 17 - 18) =     15.50016  eV     2   --> E    L_3       
     e( 19 - 20) =     16.45568  eV     2   --> E    L_3       
     e( 21 - 21) =     16.92586  eV     1   --> A_1  L_1       
     e( 22 - 23) =     18.49354  eV     2   --> E    L_3       
     e( 24 - 24) =     18.60895  eV     1   --> A_1  L_1       

 **************************************************************************

 **************************************************************************

                    xk=(   0.09500,   0.09500,   0.09500  )

     Band symmetry, C_3v (3m)   point group:

     e(  1 -  1) =    -23.76919  eV     1   --> A_1  L_1       
     e(  2 -  2) =    -11.31603  eV     1   --> A_1  L_1       
     e(  3 -  4) =     -7.83695  eV     2   --> E    L_3       
     e(  5 -  5) =     -7.83366  eV     1   --> A_1  L_1       
     e(  6 -  6) =      0.70488  eV     1   --> A_1  L_1       
     e(  7 -  8) =      0.77548  eV     2   --> E    L_3       
     e(  9 -  9) =      5.20382  eV     1   --> A_1  L_1       
     e( 10 - 10) =      7.99373  eV     1   --> A_1  L_1       
     e( 11 - 12) =      8.15937  eV     2   --> E    L_3       
     e( 13 - 14) =      9.02092  eV     2   --> E    L_3       
     e( 15 - 15) =     11.94495  eV     1   --> A_1  L_1       
     e( 16 - 16) =     14.95458  eV     1   --> A_1  L_1       
     e( 17 - 18) =     15.45371  eV     2   --> E    L_3       
     e( 19 - 20) =     16.45276  eV     2   --> E    L_3       
     e( 21 - 21) =     16.94476  eV     1   --> A_1  L_1       
     e( 22 - 23) =     18.47924  eV     2   --> E    L_3       
     e( 24 - 24) =     18.57315  eV     1   --> A_1  L_1       

 **************************************************************************

 **************************************************************************

                    xk=(   0.10000,   0.10000,   0.10000  )

     Band symmetry, C_3v (3m)   point group:

     e(  1 -  1) =    -23.76913  eV     1   --> A_1  L_1       
     e(  2 -  2) =    -11.31630  eV     1   --> A_1  L_1       
     e(  3 -  4) =     -7.83701  eV     2   --> E    L_3       
     e(  5 -  5) =     -7.83339  eV     1   --> A_1  L_1       
     e(  6 -  6) =      0.69503  eV     1   --> A_1  L_1       
     e(  7 -  8) =      0.77263  eV     2   --> E    L_3       
     e(  9 -  9) =      5.22531  eV     1   --> A_1  L_1       
     e( 10 - 10) =      7.98799  eV     1   --> A_1  L_1       
     e( 11 - 12) =      8.17018  eV     2   --> E    L_3       
     e( 13 - 14) =      9.03379  eV     2   --> E    L_3       
     e( 15 - 15) =     11.97885  eV     1   --> A_1  L_1       
     e( 16 - 16) =     14.88543  eV     1   --> A_1  L_1       
     e( 17 - 18) =     15.40653  eV     2   --> E    L_3       
     e( 19 - 20) =     16.44782  eV     2   --> E    L_3       
     e( 21 - 21) =     16.96070  eV     1   --> A_1  L_1       
     e( 22 - 23) =     18.46653  eV     2   --> E    L_3       
     e( 24 - 24) =     18.53748  eV     1   --> A_1  L_1       

 **************************************************************************

 **************************************************************************

                    xk=(   0.10500,   0.10500,   0.10500  )

     Band symmetry, C_3v (3m)   point group:

     e(  1 -  1) =    -23.76907  eV     1   --> A_1  L_1       
     e(  2 -  2) =    -11.31657  eV     1   --> A_1  L_1       
     e(  3 -  4) =     -7.83708  eV     2   --> E    L_3       
     e(  5 -  5) =     -7.83310  eV     1   --> A_1  L_1       
     e(  6 -  6) =      0.68481  eV     1   --> A_1  L_1       
     e(  7 -  8) =      0.76966  eV     2   --> E    L_3       
     e(  9 -  9) =      5.24772  eV     1   --> A_1  L_1       
     e( 10 - 10) =      7.98219  eV     1   --> A_1  L_1       
     e( 11 - 12) =      8.18152  eV     2   --> E    L_3       
     e( 13 - 14) =      9.04729  eV     2   --> E    L_3       
     e( 15 - 15) =     12.01417  eV     1   --> A_1  L_1       
     e( 16 - 16) =     14.81625  eV     1   --> A_1  L_1       
     e( 17 - 18) =     15.35866  eV     2   --> E    L_3       
     e( 19 - 20) =     16.44086  eV     2   --> E    L_3       
     e( 21 - 21) =     16.97355  eV     1   --> A_1  L_1       
     e( 22 - 23) =     18.45543  eV     2   --> E    L_3       
     e( 24 - 24) =     18.50219  eV     1   --> A_1  L_1       

 **************************************************************************

 **************************************************************************

                    xk=(   0.11000,   0.11000,   0.11000  )

     Band symmetry, C_3v (3m)   point group:

     e(  1 -  1) =    -23.76901  eV     1   --> A_1  L_1       
     e(  2 -  2) =    -11.31685  eV     1   --> A_1  L_1       
     e(  3 -  4) =     -7.83715  eV     2   --> E    L_3       
     e(  5 -  5) =     -7.83280  eV     1   --> A_1  L_1       
     e(  6 -  6) =      0.67424  eV     1   --> A_1  L_1       
     e(  7 -  8) =      0.76658  eV     2   --> E    L_3       
     e(  9 -  9) =      5.27104  eV     1   --> A_1  L_1       
     e( 10 - 10) =      7.97636  eV     1   --> A_1  L_1       
     e( 11 - 12) =      8.19341  eV     2   --> E    L_3       
     e( 13 - 14) =      9.06140  eV     2   --> E    L_3       
     e( 15 - 15) =     12.05087  eV     1   --> A_1  L_1       
     e( 16 - 16) =     14.74708  eV     1   --> A_1  L_1       
     e( 17 - 18) =     15.31012  eV     2   --> E    L_3       
     e( 19 - 20) =     16.43189  eV     2   --> E    L_3       
     e( 21 - 21) =     16.98316  eV     1   --> A_1  L_1       
     e( 22 - 23) =     18.44594  eV     2   --> E    L_3       
     e( 24 - 24) =     18.46760  eV     1   --> A_1  L_1       

 **************************************************************************

 **************************************************************************

                    xk=(   0.11500,   0.11500,   0.11500  )

     Band symmetry, C_3v (3m)   point group:

     e(  1 -  1) =    -23.76895  eV     1   --> A_1  L_1       
     e(  2 -  2) =    -11.31715  eV     1   --> A_1  L_1       
     e(  3 -  4) =     -7.83722  eV     2   --> E    L_3       
     e(  5 -  5) =     -7.83248  eV     1   --> A_1  L_1       
     e(  6 -  6) =      0.66335  eV     1   --> A_1  L_1       
     e(  7 -  8) =      0.76338  eV     2   --> E    L_3       
     e(  9 -  9) =      5.29524  eV     1   --> A_1  L_1       
     e( 10 - 10) =      7.97052  eV     1   --> A_1  L_1       
     e( 11 - 12) =      8.20582  eV     2   --> E    L_3       
     e( 13 - 14) =      9.07612  eV     2   --> E    L_3       
     e( 15 - 15) =     12.08891  eV     1   --> A_1  L_1       
     e( 16 - 16) =     14.67797  eV     1   --> A_1  L_1       
     e( 17 - 18) =     15.26094  eV     2   --> E    L_3       
     e( 19 - 20) =     16.42090  eV     2   --> E    L_3       
     e( 21 - 21) =     16.98936  eV     1   --> A_1  L_1       
     e( 22 - 22) =     18.43399  eV     1   --> A_1  L_1       
     e( 23 - 24) =     18.43806  eV     2   --> E    L_3       

 **************************************************************************

 **************************************************************************

                    xk=(   0.12000,   0.12000,   0.12000  )

     Band symmetry, C_3v (3m)   point group:

     e(  1 -  1) =    -23.76888  eV     1   --> A_1  L_1       
     e(  2 -  2) =    -11.31745  eV     1   --> A_1  L_1       
     e(  3 -  4) =     -7.83730  eV     2   --> E    L_3       
     e(  5 -  5) =     -7.83216  eV     1   --> A_1  L_1       
     e(  6 -  6) =      0.65215  eV     1   --> A_1  L_1       
     e(  7 -  8) =      0.76006  eV     2   --> E    L_3       
     e(  9 -  9) =      5.32030  eV     1   --> A_1  L_1       
     e( 10 - 10) =      7.96470  eV     1   --> A_1  L_1       
     e( 11 - 12) =      8.21877  eV     2   --> E    L_3       
     e( 13 - 14) =      9.09146  eV     2   --> E    L_3       
     e( 15 - 15) =     12.12825  eV     1   --> A_1  L_1       
     e( 16 - 16) =     14.60899  eV     1   --> A_1  L_1       
     e( 17 - 18) =     15.21116  eV     2   --> E    L_3       
     e( 19 - 20) =     16.40791  eV     2   --> E    L_3       
     e( 21 - 21) =     16.99200  eV     1   --> A_1  L_1       
     e( 22 - 22) =     18.40165  eV     1   --> A_1  L_1       
     e( 23 - 24) =     18.43179  eV     2   --> E    L_3       

 **************************************************************************

 **************************************************************************

                    xk=(   0.12500,   0.12500,   0.12500  )

     Band symmetry, C_3v (3m)   point group:

     e(  1 -  1) =    -23.76881  eV     1   --> A_1  L_1       
     e(  2 -  2) =    -11.31776  eV     1   --> A_1  L_1       
     e(  3 -  4) =     -7.83738  eV     2   --> E    L_3       
     e(  5 -  5) =     -7.83182  eV     1   --> A_1  L_1       
     e(  6 -  6) =      0.64065  eV     1   --> A_1  L_1       
     e(  7 -  8) =      0.75665  eV     2   --> E    L_3       
     e(  9 -  9) =      5.34620  eV     1   --> A_1  L_1       
     e( 10 - 10) =      7.95892  eV     1   --> A_1  L_1       
     e( 11 - 12) =      8.23224  eV     2   --> E    L_3       
     e( 13 - 14) =      9.10739  eV     2   --> E    L_3       
     e( 15 - 15) =     12.16882  eV     1   --> A_1  L_1       
     e( 16 - 16) =     14.54016  eV     1   --> A_1  L_1       
     e( 17 - 18) =     15.16081  eV     2   --> E    L_3       
     e( 19 - 20) =     16.39295  eV     2   --> E    L_3       
     e( 21 - 21) =     16.99092  eV     1   --> A_1  L_1       
     e( 22 - 22) =     18.37088  eV     1   --> A_1  L_1       
     e( 23 - 24) =     18.42710  eV     2   --> E    L_3       

 **************************************************************************

 **************************************************************************

                    xk=(   0.13000,   0.13000,   0.13000  )

     Band symmetry, C_3v (3m)   point group:

     e(  1 -  1) =    -23.76874  eV     1   --> A_1  L_1       
     e(  2 -  2) =    -11.31809  eV     1   --> A_1  L_1       
     e(  3 -  4) =     -7.83746  eV     2   --> E    L_3       
     e(  5 -  5) =     -7.83148  eV     1   --> A_1  L_1       
     e(  6 -  6) =      0.62889  eV     1   --> A_1  L_1       
     e(  7 -  8) =      0.75312  eV     2   --> E    L_3       
     e(  9 -  9) =      5.37291  eV     1   --> A_1  L_1       
     e( 10 - 10) =      7.95322  eV     1   --> A_1  L_1       
     e( 11 - 12) =      8.24625  eV     2   --> E    L_3       
     e( 13 - 14) =      9.12392  eV     2   --> E    L_3       
     e( 15 - 15) =     12.21059  eV     1   --> A_1  L_1       
     e( 16 - 16) =     14.47156  eV     1   --> A_1  L_1       
     e( 17 - 18) =     15.10990  eV     2   --> E    L_3       
     e( 19 - 20) =     16.37604  eV     2   --> E    L_3       
     e( 21 - 21) =     16.98598  eV     1   --> A_1  L_1       
     e( 22 - 22) =     18.34194  eV     1   --> A_1  L_1       
     e( 23 - 24) =     18.42397  eV     2   --> E    L_3       

 **************************************************************************

 **************************************************************************

                    xk=(   0.13500,   0.13500,   0.13500  )

     Band symmetry, C_3v (3m)   point group:

     e(  1 -  1) =    -23.76866  eV     1   --> A_1  L_1       
     e(  2 -  2) =    -11.31843  eV     1   --> A_1  L_1       
     e(  3 -  4) =     -7.83754  eV     2   --> E    L_3       
     e(  5 -  5) =     -7.83112  eV     1   --> A_1  L_1       
     e(  6 -  6) =      0.61687  eV     1   --> A_1  L_1       
     e(  7 -  8) =      0.74951  eV     2   --> E    L_3       
     e(  9 -  9) =      5.40041  eV     1   --> A_1  L_1       
     e( 10 - 10) =      7.94760  eV     1   --> A_1  L_1       
     e( 11 - 12) =      8.26077  eV     2   --> E    L_3       
     e( 13 - 14) =      9.14104  eV     2   --> E    L_3       
     e( 15 - 15) =     12.25349  eV     1   --> A_1  L_1       
     e( 16 - 16) =     14.40323  eV     1   --> A_1  L_1       
     e( 17 - 18) =     15.05847  eV     2   --> E    L_3       
     e( 19 - 20) =     16.35723  eV     2   --> E    L_3       
     e( 21 - 21) =     16.97708  eV     1   --> A_1  L_1       
     e( 22 - 22) =     18.31508  eV     1   --> A_1  L_1       
     e( 23 - 24) =     18.42238  eV     2   --> E    L_3       

 **************************************************************************

 **************************************************************************

                    xk=(   0.14000,   0.14000,   0.14000  )

     Band symmetry, C_3v (3m)   point group:

     e(  1 -  1) =    -23.76859  eV     1   --> A_1  L_1       
     e(  2 -  2) =    -11.31877  eV     1   --> A_1  L_1       
     e(  3 -  4) =     -7.83763  eV     2   --> E    L_3       
     e(  5 -  5) =     -7.83075  eV     1   --> A_1  L_1       
     e(  6 -  6) =      0.60462  eV     1   --> A_1  L_1       
     e(  7 -  8) =      0.74579  eV     2   --> E    L_3       
     e(  9 -  9) =      5.42866  eV     1   --> A_1  L_1       
     e( 10 - 10) =      7.94211  eV     1   --> A_1  L_1       
     e( 11 - 12) =      8.27582  eV     2   --> E    L_3       
     e( 13 - 14) =      9.15875  eV     2   --> E    L_3       
     e( 15 - 15) =     12.29746  eV     1   --> A_1  L_1       
     e( 16 - 16) =     14.33523  eV     1   --> A_1  L_1       
     e( 17 - 18) =     15.00656  eV     2   --> E    L_3       
     e( 19 - 20) =     16.33656  eV     2   --> E    L_3       
     e( 21 - 21) =     16.96413  eV     1   --> A_1  L_1       
     e( 22 - 22) =     18.29050  eV     1   --> A_1  L_1       
     e( 23 - 24) =     18.42228  eV     2   --> E    L_3       

 **************************************************************************

 **************************************************************************

                    xk=(   0.14500,   0.14500,   0.14500  )

     Band symmetry, C_3v (3m)   point group:

     e(  1 -  1) =    -23.76851  eV     1   --> A_1  L_1       
     e(  2 -  2) =    -11.31913  eV     1   --> A_1  L_1       
     e(  3 -  4) =     -7.83772  eV     2   --> E    L_3       
     e(  5 -  5) =     -7.83038  eV     1   --> A_1  L_1       
     e(  6 -  6) =      0.59214  eV     1   --> A_1  L_1       
     e(  7 -  8) =      0.74199  eV     2   --> E    L_3       
     e(  9 -  9) =      5.45766  eV     1   --> A_1  L_1       
     e( 10 - 10) =      7.93675  eV     1   --> A_1  L_1       
     e( 11 - 12) =      8.29138  eV     2   --> E    L_3       
     e( 13 - 14) =      9.17702  eV     2   --> E    L_3       
     e( 15 - 15) =     12.34244  eV     1   --> A_1  L_1       
     e( 16 - 16) =     14.26762  eV     1   --> A_1  L_1       
     e( 17 - 18) =     14.95417  eV     2   --> E    L_3       
     e( 19 - 20) =     16.31408  eV     2   --> E    L_3       
     e( 21 - 21) =     16.94711  eV     1   --> A_1  L_1       
     e( 22 - 22) =     18.26835  eV     1   --> A_1  L_1       
     e( 23 - 24) =     18.42363  eV     2   --> E    L_3       

 **************************************************************************

 **************************************************************************

                    xk=(   0.15000,   0.15000,   0.15000  )

     Band symmetry, C_3v (3m)   point group:

     e(  1 -  1) =    -23.76843  eV     1   --> A_1  L_1       
     e(  2 -  2) =    -11.31949  eV     1   --> A_1  L_1       
     e(  3 -  4) =     -7.83781  eV     2   --> E    L_3       
     e(  5 -  5) =     -7.83000  eV     1   --> A_1  L_1       
     e(  6 -  6) =      0.57947  eV     1   --> A_1  L_1       
     e(  7 -  8) =      0.73810  eV     2   --> E    L_3       
     e(  9 -  9) =      5.48736  eV     1   --> A_1  L_1       
     e( 10 - 10) =      7.93156  eV     1   --> A_1  L_1       
     e( 11 - 12) =      8.30746  eV     2   --> E    L_3       
     e( 13 - 14) =      9.19586  eV     2   --> E    L_3       
     e( 15 - 15) =     12.38836  eV     1   --> A_1  L_1       
     e( 16 - 16) =     14.20049  eV     1   --> A_1  L_1       
     e( 17 - 18) =     14.90135  eV     2   --> E    L_3       
     e( 19 - 20) =     16.28986  eV     2   --> E    L_3       
     e( 21 - 21) =     16.92602  eV     1   --> A_1  L_1       
     e( 22 - 22) =     18.24876  eV     1   --> A_1  L_1       
     e( 23 - 24) =     18.42638  eV     2   --> E    L_3       

 **************************************************************************

 **************************************************************************

                    xk=(   0.15500,   0.15500,   0.15500  )

     Band symmetry, C_3v (3m)   point group:

     e(  1 -  1) =    -23.76835  eV     1   --> A_1  L_1       
     e(  2 -  2) =    -11.31986  eV     1   --> A_1  L_1       
     e(  3 -  4) =     -7.83790  eV     2   --> E    L_3       
     e(  5 -  5) =     -7.82960  eV     1   --> A_1  L_1       
     e(  6 -  6) =      0.56661  eV     1   --> A_1  L_1       
     e(  7 -  8) =      0.73412  eV     2   --> E    L_3       
     e(  9 -  9) =      5.51775  eV     1   --> A_1  L_1       
     e( 10 - 10) =      7.92655  eV     1   --> A_1  L_1       
     e( 11 - 12) =      8.32405  eV     2   --> E    L_3       
     e( 13 - 14) =      9.21526  eV     2   --> E    L_3       
     e( 15 - 15) =     12.43512  eV     1   --> A_1  L_1       
     e( 16 - 16) =     14.13389  eV     1   --> A_1  L_1       
     e( 17 - 18) =     14.84812  eV     2   --> E    L_3       
     e( 19 - 20) =     16.26395  eV     2   --> E    L_3       
     e( 21 - 21) =     16.90092  eV     1   --> A_1  L_1       
     e( 22 - 22) =     18.23177  eV     1   --> A_1  L_1       
     e( 23 - 24) =     18.43048  eV     2   --> E    L_3       

 **************************************************************************

 **************************************************************************

                    xk=(   0.16000,   0.16000,   0.16000  )

     Band symmetry, C_3v (3m)   point group:

     e(  1 -  1) =    -23.76826  eV     1   --> A_1  L_1       
     e(  2 -  2) =    -11.32024  eV     1   --> A_1  L_1       
     e(  3 -  4) =     -7.83800  eV     2   --> E    L_3       
     e(  5 -  5) =     -7.82920  eV     1   --> A_1  L_1       
     e(  6 -  6) =      0.55359  eV     1   --> A_1  L_1       
     e(  7 -  8) =      0.73007  eV     2   --> E    L_3       
     e(  9 -  9) =      5.54880  eV     1   --> A_1  L_1       
     e( 10 - 10) =      7.92175  eV     1   --> A_1  L_1       
     e( 11 - 12) =      8.34115  eV     2   --> E    L_3       
     e( 13 - 14) =      9.23521  eV     2   --> E    L_3       
     e( 15 - 15) =     12.48263  eV     1   --> A_1  L_1       
     e( 16 - 16) =     14.06793  eV     1   --> A_1  L_1       
     e( 17 - 18) =     14.79451  eV     2   --> E    L_3       
     e( 19 - 20) =     16.23642  eV     2   --> E    L_3       
     e( 21 - 21) =     16.87194  eV     1   --> A_1  L_1       
     e( 22 - 22) =     18.21738  eV     1   --> A_1  L_1       
     e( 23 - 24) =     18.43588  eV     2   --> E    L_3       

 **************************************************************************

 **************************************************************************

                    xk=(   0.16500,   0.16500,   0.16500  )

     Band symmetry, C_3v (3m)   point group:

     e(  1 -  1) =    -23.76818  eV     1   --> A_1  L_1       
     e(  2 -  2) =    -11.32062  eV     1   --> A_1  L_1       
     e(  3 -  4) =     -7.83809  eV     2   --> E    L_3       
     e(  5 -  5) =     -7.82879  eV     1   --> A_1  L_1       
     e(  6 -  6) =      0.54042  eV     1   --> A_1  L_1       
     e(  7 -  8) =      0.72595  eV     2   --> E    L_3       
     e(  9 -  9) =      5.58048  eV     1   --> A_1  L_1       
     e( 10 - 10) =      7.91717  eV     1   --> A_1  L_1       
     e( 11 - 12) =      8.35876  eV     2   --> E    L_3       
     e( 13 - 14) =      9.25570  eV     2   --> E    L_3       
     e( 15 - 15) =     12.53076  eV     1   --> A_1  L_1       
     e( 16 - 16) =     14.00272  eV     1   --> A_1  L_1       
     e( 17 - 18) =     14.74053  eV     2   --> E    L_3       
     e( 19 - 20) =     16.20733  eV     2   --> E    L_3       
     e( 21 - 21) =     16.83925  eV     1   --> A_1  L_1       
     e( 22 - 22) =     18.20553  eV     1   --> A_1  L_1       
     e( 23 - 24) =     18.44252  eV     2   --> E    L_3       

 **************************************************************************

 **************************************************************************

                    xk=(   0.17000,   0.17000,   0.17000  )

     Band symmetry, C_3v (3m)   point group:

     e(  1 -  1) =    -23.76809  eV     1   --> A_1  L_1       
     e(  2 -  2) =    -11.32101  eV     1   --> A_1  L_1       
     e(  3 -  4) =     -7.83819  eV     2   --> E    L_3       
     e(  5 -  5) =     -7.82837  eV     1   --> A_1  L_1       
     e(  6 -  6) =      0.52712  eV     1   --> A_1  L_1       
     e(  7 -  8) =      0.72176  eV     2   --> E    L_3       
     e(  9 -  9) =      5.61277  eV     1   --> A_1  L_1       
     e( 10 - 10) =      7.91283  eV     1   --> A_1  L_1       
     e( 11 - 12) =      8.37687  eV     2   --> E    L_3       
     e( 13 - 14) =      9.27672  eV     2   --> E    L_3       
     e( 15 - 15) =     12.57937  eV     1   --> A_1  L_1       
     e( 16 - 16) =     13.93840  eV     1   --> A_1  L_1       
     e( 17 - 18) =     14.68622  eV     2   --> E    L_3       
     e( 19 - 20) =     16.17676  eV     2   --> E    L_3       
     e( 21 - 21) =     16.80304  eV     1   --> A_1  L_1       
     e( 22 - 22) =     18.19615  eV     1   --> A_1  L_1       
     e( 23 - 24) =     18.45034  eV     2   --> E    L_3       

 **************************************************************************

 **************************************************************************

                    xk=(   0.17500,   0.17500,   0.17500  )

     Band symmetry, C_3v (3m)   point group:

     e(  1 -  1) =    -23.76800  eV     1   --> A_1  L_1       
     e(  2 -  2) =    -11.32141  eV     1   --> A_1  L_1       
     e(  3 -  4) =     -7.83829  eV     2   --> E    L_3       
     e(  5 -  5) =     -7.82795  eV     1   --> A_1  L_1       
     e(  6 -  6) =      0.51371  eV     1   --> A_1  L_1       
     e(  7 -  8) =      0.71751  eV     2   --> E    L_3       
     e(  9 -  9) =      5.64563  eV     1   --> A_1  L_1       
     e( 10 - 10) =      7.90876  eV     1   --> A_1  L_1       
     e( 11 - 12) =      8.39547  eV     2   --> E    L_3       
     e( 13 - 14) =      9.29827  eV     2   --> E    L_3       
     e( 15 - 15) =     12.62826  eV     1   --> A_1  L_1       
     e( 16 - 16) =     13.87514  eV     1   --> A_1  L_1       
     e( 17 - 18) =     14.63161  eV     2   --> E    L_3       
     e( 19 - 20) =     16.14478  eV     2   --> E    L_3       
     e( 21 - 21) =     16.76355  eV     1   --> A_1  L_1       
     e( 22 - 22) =     18.18908  eV     1   --> A_1  L_1       
     e( 23 - 24) =     18.45929  eV     2   --> E    L_3       

 **************************************************************************

 **************************************************************************

                    xk=(   0.18000,   0.18000,   0.18000  )

     Band symmetry, C_3v (3m)   point group:

     e(  1 -  1) =    -23.76791  eV     1   --> A_1  L_1       
     e(  2 -  2) =    -11.32182  eV     1   --> A_1  L_1       
     e(  3 -  4) =     -7.83839  eV     2   --> E    L_3       
     e(  5 -  5) =     -7.82752  eV     1   --> A_1  L_1       
     e(  6 -  6) =      0.50019  eV     1   --> A_1  L_1       
     e(  7 -  8) =      0.71319  eV     2   --> E    L_3       
     e(  9 -  9) =      5.67905  eV     1   --> A_1  L_1       
     e( 10 - 10) =      7.90497  eV     1   --> A_1  L_1       
     e( 11 - 12) =      8.41457  eV     2   --> E    L_3       
     e( 13 - 14) =      9.32033  eV     2   --> E    L_3       
     e( 15 - 15) =     12.67718  eV     1   --> A_1  L_1       
     e( 16 - 16) =     13.81318  eV     1   --> A_1  L_1       
     e( 17 - 18) =     14.57671  eV     2   --> E    L_3       
     e( 19 - 20) =     16.11145  eV     2   --> E    L_3       
     e( 21 - 21) =     16.72104  eV     1   --> A_1  L_1       
     e( 22 - 22) =     18.18419  eV     1   --> A_1  L_1       
     e( 23 - 24) =     18.46930  eV     2   --> E    L_3       

 **************************************************************************

 **************************************************************************

                    xk=(   0.18500,   0.18500,   0.18500  )

     Band symmetry, C_3v (3m)   point group:

     e(  1 -  1) =    -23.76782  eV     1   --> A_1  L_1       
     e(  2 -  2) =    -11.32223  eV     1   --> A_1  L_1       
     e(  3 -  4) =     -7.83849  eV     2   --> E    L_3       
     e(  5 -  5) =     -7.82708  eV     1   --> A_1  L_1       
     e(  6 -  6) =      0.48660  eV     1   --> A_1  L_1       
     e(  7 -  8) =      0.70883  eV     2   --> E    L_3       
     e(  9 -  9) =      5.71299  eV     1   --> A_1  L_1       
     e( 10 - 10) =      7.90147  eV     1   --> A_1  L_1       
     e( 11 - 12) =      8.43417  eV     2   --> E    L_3       
     e( 13 - 14) =      9.34289  eV     2   --> E    L_3       
     e( 15 - 15) =     12.72579  eV     1   --> A_1  L_1       
     e( 16 - 16) =     13.75285  eV     1   --> A_1  L_1       
     e( 17 - 18) =     14.52155  eV     2   --> E    L_3       
     e( 19 - 20) =     16.07686  eV     2   --> E    L_3       
     e( 21 - 21) =     16.67577  eV     1   --> A_1  L_1       
     e( 22 - 22) =     18.18130  eV     1   --> A_1  L_1       
     e( 23 - 24) =     18.48032  eV     2   --> E    L_3       

 **************************************************************************

 **************************************************************************

                    xk=(   0.19000,   0.19000,   0.19000  )

     Band symmetry, C_3v (3m)   point group:

     e(  1 -  1) =    -23.76773  eV     1   --> A_1  L_1       
     e(  2 -  2) =    -11.32265  eV     1   --> A_1  L_1       
     e(  3 -  4) =     -7.83860  eV     2   --> E    L_3       
     e(  5 -  5) =     -7.82663  eV     1   --> A_1  L_1       
     e(  6 -  6) =      0.47294  eV     1   --> A_1  L_1       
     e(  7 -  8) =      0.70441  eV     2   --> E    L_3       
     e(  9 -  9) =      5.74743  eV     1   --> A_1  L_1       
     e( 10 - 10) =      7.89828  eV     1   --> A_1  L_1       
     e( 11 - 12) =      8.45425  eV     2   --> E    L_3       
     e( 13 - 14) =      9.36595  eV     2   --> E    L_3       
     e( 15 - 15) =     12.77361  eV     1   --> A_1  L_1       
     e( 16 - 16) =     13.69460  eV     1   --> A_1  L_1       
     e( 17 - 18) =     14.46615  eV     2   --> E    L_3       
     e( 19 - 20) =     16.04106  eV     2   --> E    L_3       
     e( 21 - 21) =     16.62803  eV     1   --> A_1  L_1       
     e( 22 - 22) =     18.18025  eV     1   --> A_1  L_1       
     e( 23 - 24) =     18.49229  eV     2   --> E    L_3       

 **************************************************************************

 **************************************************************************

                    xk=(   0.19500,   0.19500,   0.19500  )

     Band symmetry, C_3v (3m)   point group:

     e(  1 -  1) =    -23.76763  eV     1   --> A_1  L_1       
     e(  2 -  2) =    -11.32307  eV     1   --> A_1  L_1       
     e(  3 -  4) =     -7.83870  eV     2   --> E    L_3       
     e(  5 -  5) =     -7.82618  eV     1   --> A_1  L_1       
     e(  6 -  6) =      0.45922  eV     1   --> A_1  L_1       
     e(  7 -  8) =      0.69995  eV     2   --> E    L_3       
     e(  9 -  9) =      5.78233  eV     1   --> A_1  L_1       
     e( 10 - 10) =      7.89543  eV     1   --> A_1  L_1       
     e( 11 - 12) =      8.47481  eV     2   --> E    L_3       
     e( 13 - 14) =      9.38948  eV     2   --> E    L_3       
     e( 15 - 15) =     12.81996  eV     1   --> A_1  L_1       
     e( 16 - 16) =     13.63911  eV     1   --> A_1  L_1       
     e( 17 - 18) =     14.41054  eV     2   --> E    L_3       
     e( 19 - 20) =     16.00414  eV     2   --> E    L_3       
     e( 21 - 21) =     16.57808  eV     1   --> A_1  L_1       
     e( 22 - 22) =     18.18086  eV     1   --> A_1  L_1       
     e( 23 - 24) =     18.50516  eV     2   --> E    L_3       

 **************************************************************************

 **************************************************************************

                    xk=(   0.20000,   0.20000,   0.20000  )

     Band symmetry, C_3v (3m)   point group:

     e(  1 -  1) =    -23.76754  eV     1   --> A_1  L_1       
     e(  2 -  2) =    -11.32349  eV     1   --> A_1  L_1       
     e(  3 -  4) =     -7.83880  eV     2   --> E    L_3       
     e(  5 -  5) =     -7.82573  eV     1   --> A_1  L_1       
     e(  6 -  6) =      0.44548  eV     1   --> A_1  L_1       
     e(  7 -  8) =      0.69544  eV     2   --> E    L_3       
     e(  9 -  9) =      5.81767  eV     1   --> A_1  L_1       
     e( 10 - 10) =      7.89291  eV     1   --> A_1  L_1       
     e( 11 - 12) =      8.49586  eV     2   --> E    L_3       
     e( 13 - 14) =      9.41349  eV     2   --> E    L_3       
     e( 15 - 15) =     12.86379  eV     1   --> A_1  L_1       
     e( 16 - 16) =     13.58738  eV     1   --> A_1  L_1       
     e( 17 - 18) =     14.35474  eV     2   --> E    L_3       
     e( 19 - 20) =     15.96615  eV     2   --> E    L_3       
     e( 21 - 21) =     16.52618  eV     1   --> A_1  L_1       
     e( 22 - 22) =     18.18297  eV     1   --> A_1  L_1       
     e( 23 - 24) =     18.51887  eV     2   --> E    L_3       

 **************************************************************************

 **************************************************************************

                    xk=(   0.20500,   0.20500,   0.20500  )

     Band symmetry, C_3v (3m)   point group:

     e(  1 -  1) =    -23.76744  eV     1   --> A_1  L_1       
     e(  2 -  2) =    -11.32392  eV     1   --> A_1  L_1       
     e(  3 -  4) =     -7.83891  eV     2   --> E    L_3       
     e(  5 -  5) =     -7.82527  eV     1   --> A_1  L_1       
     e(  6 -  6) =      0.43171  eV     1   --> A_1  L_1       
     e(  7 -  8) =      0.69091  eV     2   --> E    L_3       
     e(  9 -  9) =      5.85343  eV     1   --> A_1  L_1       
     e( 10 - 10) =      7.89075  eV     1   --> A_1  L_1       
     e( 11 - 12) =      8.51738  eV     2   --> E    L_3       
     e( 13 - 14) =      9.43795  eV     2   --> E    L_3       
     e( 15 - 15) =     12.90359  eV     1   --> A_1  L_1       
     e( 16 - 16) =     13.54090  eV     1   --> A_1  L_1       
     e( 17 - 18) =     14.29878  eV     2   --> E    L_3       
     e( 19 - 20) =     15.92718  eV     2   --> E    L_3       
     e( 21 - 21) =     16.47259  eV     1   --> A_1  L_1       
     e( 22 - 22) =     18.18643  eV     1   --> A_1  L_1       
     e( 23 - 24) =     18.53337  eV     2   --> E    L_3       

 **************************************************************************

 **************************************************************************

                    xk=(   0.21000,   0.21000,   0.21000  )

     Band symmetry, C_3v (3m)   point group:

     e(  1 -  1) =    -23.76735  eV     1   --> A_1  L_1       
     e(  2 -  2) =    -11.32436  eV     1   --> A_1  L_1       
     e(  3 -  4) =     -7.83902  eV     2   --> E    L_3       
     e(  5 -  5) =     -7.82481  eV     1   --> A_1  L_1       
     e(  6 -  6) =      0.41793  eV     1   --> A_1  L_1       
     e(  7 -  8) =      0.68634  eV     2   --> E    L_3       
     e(  9 -  9) =      5.88957  eV     1   --> A_1  L_1       
     e( 10 - 10) =      7.88896  eV     1   --> A_1  L_1       
     e( 11 - 12) =      8.53937  eV     2   --> E    L_3       
     e( 13 - 14) =      9.46286  eV     2   --> E    L_3       
     e( 15 - 15) =     12.93710  eV     1   --> A_1  L_1       
     e( 16 - 16) =     13.50190  eV     1   --> A_1  L_1       
     e( 17 - 18) =     14.24267  eV     2   --> E    L_3       
     e( 19 - 20) =     15.88727  eV     2   --> E    L_3       
     e( 21 - 21) =     16.41756  eV     1   --> A_1  L_1       
     e( 22 - 22) =     18.19108  eV     1   --> A_1  L_1       
     e( 23 - 24) =     18.54860  eV     2   --> E    L_3       

 **************************************************************************

 **************************************************************************

                    xk=(   0.21500,   0.21500,   0.21500  )

     Band symmetry, C_3v (3m)   point group:

     e(  1 -  1) =    -23.76725  eV     1   --> A_1  L_1       
     e(  2 -  2) =    -11.32479  eV     1   --> A_1  L_1       
     e(  3 -  4) =     -7.83913  eV     2   --> E    L_3       
     e(  5 -  5) =     -7.82434  eV     1   --> A_1  L_1       
     e(  6 -  6) =      0.40416  eV     1   --> A_1  L_1       
     e(  7 -  8) =      0.68174  eV     2   --> E    L_3       
     e(  9 -  9) =      5.92606  eV     1   --> A_1  L_1       
     e( 10 - 10) =      7.88754  eV     1   --> A_1  L_1       
     e( 11 - 12) =      8.56183  eV     2   --> E    L_3       
     e( 13 - 14) =      9.48820  eV     2   --> E    L_3       
     e( 15 - 15) =     12.96132  eV     1   --> A_1  L_1       
     e( 16 - 16) =     13.47335  eV     1   --> A_1  L_1       
     e( 17 - 18) =     14.18644  eV     2   --> E    L_3       
     e( 19 - 20) =     15.84650  eV     2   --> E    L_3       
     e( 21 - 21) =     16.36131  eV     1   --> A_1  L_1       
     e( 22 - 22) =     18.19680  eV     1   --> A_1  L_1       
     e( 23 - 24) =     18.56452  eV     2   --> E    L_3       

 **************************************************************************

 **************************************************************************

                    xk=(   0.22000,   0.22000,   0.22000  )

     Band symmetry, C_3v (3m)   point group:

     e(  1 -  1) =    -23.76715  eV     1   --> A_1  L_1       
     e(  2 -  2) =    -11.32523  eV     1   --> A_1  L_1       
     e(  3 -  4) =     -7.83924  eV     2   --> E    L_3       
     e(  5 -  5) =     -7.82387  eV     1   --> A_1  L_1       
     e(  6 -  6) =      0.39041  eV     1   --> A_1  L_1       
     e(  7 -  8) =      0.67712  eV     2   --> E    L_3       
     e(  9 -  9) =      5.96287  eV     1   --> A_1  L_1       
     e( 10 - 10) =      7.88652  eV     1   --> A_1  L_1       
     e( 11 - 12) =      8.58475  eV     2   --> E    L_3       
     e( 13 - 14) =      9.51397  eV     2   --> E    L_3       
     e( 15 - 15) =     12.97294  eV     1   --> A_1  L_1       
     e( 16 - 16) =     13.45850  eV     1   --> A_1  L_1       
     e( 17 - 18) =     14.13011  eV     2   --> E    L_3       
     e( 19 - 20) =     15.80493  eV     2   --> E    L_3       
     e( 21 - 21) =     16.30407  eV     1   --> A_1  L_1       
     e( 22 - 22) =     18.20347  eV     1   --> A_1  L_1       
     e( 23 - 24) =     18.58108  eV     2   --> E    L_3       

 **************************************************************************

 **************************************************************************

                    xk=(   0.22500,   0.22500,   0.22500  )

     Band symmetry, C_3v (3m)   point group:

     e(  1 -  1) =    -23.76705  eV     1   --> A_1  L_1       
     e(  2 -  2) =    -11.32568  eV     1   --> A_1  L_1       
     e(  3 -  4) =     -7.83935  eV     2   --> E    L_3       
     e(  5 -  5) =     -7.82340  eV     1   --> A_1  L_1       
     e(  6 -  6) =      0.37669  eV     1   --> A_1  L_1       
     e(  7 -  8) =      0.67249  eV     2   --> E    L_3       
     e(  9 -  9) =      5.99997  eV     1   --> A_1  L_1       
     e( 10 - 10) =      7.88589  eV     1   --> A_1  L_1       
     e( 11 - 12) =      8.60812  eV     2   --> E    L_3       
     e( 13 - 14) =      9.54014  eV     2   --> E    L_3       
     e( 15 - 15) =     12.96984  eV     1   --> A_1  L_1       
     e( 16 - 16) =     13.45944  eV     1   --> A_1  L_1       
     e( 17 - 18) =     14.07370  eV     2   --> E    L_3       
     e( 19 - 20) =     15.76261  eV     2   --> E    L_3       
     e( 21 - 21) =     16.24605  eV     1   --> A_1  L_1       
     e( 22 - 22) =     18.21098  eV     1   --> A_1  L_1       
     e( 23 - 24) =     18.59824  eV     2   --> E    L_3       

 **************************************************************************

 **************************************************************************

                    xk=(   0.23000,   0.23000,   0.23000  )

     Band symmetry, C_3v (3m)   point group:

     e(  1 -  1) =    -23.76695  eV     1   --> A_1  L_1       
     e(  2 -  2) =    -11.32612  eV     1   --> A_1  L_1       
     e(  3 -  4) =     -7.83946  eV     2   --> E    L_3       
     e(  5 -  5) =     -7.82293  eV     1   --> A_1  L_1       
     e(  6 -  6) =      0.36302  eV     1   --> A_1  L_1       
     e(  7 -  8) =      0.66784  eV     2   --> E    L_3       
     e(  9 -  9) =      6.03733  eV     1   --> A_1  L_1       
     e( 10 - 10) =      7.88568  eV     1   --> A_1  L_1       
     e( 11 - 12) =      8.63195  eV     2   --> E    L_3       
     e( 13 - 14) =      9.56670  eV     2   --> E    L_3       
     e( 15 - 15) =     12.95239  eV     1   --> A_1  L_1       
     e( 16 - 16) =     13.47573  eV     1   --> A_1  L_1       
     e( 17 - 18) =     14.01723  eV     2   --> E    L_3       
     e( 19 - 20) =     15.71962  eV     2   --> E    L_3       
     e( 21 - 21) =     16.18747  eV     1   --> A_1  L_1       
     e( 22 - 22) =     18.21924  eV     1   --> A_1  L_1       
     e( 23 - 24) =     18.61595  eV     2   --> E    L_3       

 **************************************************************************

 **************************************************************************

                    xk=(   0.23500,   0.23500,   0.23500  )

     Band symmetry, C_3v (3m)   point group:

     e(  1 -  1) =    -23.76685  eV     1   --> A_1  L_1       
     e(  2 -  2) =    -11.32657  eV     1   --> A_1  L_1       
     e(  3 -  4) =     -7.83957  eV     2   --> E    L_3       
     e(  5 -  5) =     -7.82245  eV     1   --> A_1  L_1       
     e(  6 -  6) =      0.34941  eV     1   --> A_1  L_1       
     e(  7 -  8) =      0.66319  eV     2   --> E    L_3       
     e(  9 -  9) =      6.07493  eV     1   --> A_1  L_1       
     e( 10 - 10) =      7.88588  eV     1   --> A_1  L_1       
     e( 11 - 12) =      8.65623  eV     2   --> E    L_3       
     e( 13 - 14) =      9.59364  eV     2   --> E    L_3       
     e( 15 - 15) =     12.92323  eV     1   --> A_1  L_1       
     e( 16 - 16) =     13.50466  eV     1   --> A_1  L_1       
     e( 17 - 18) =     13.96073  eV     2   --> E    L_3       
     e( 19 - 20) =     15.67600  eV     2   --> E    L_3       
     e( 21 - 21) =     16.12852  eV     1   --> A_1  L_1       
     e( 22 - 22) =     18.22815  eV     1   --> A_1  L_1       
     e( 23 - 24) =     18.63416  eV     2   --> E    L_3       

 **************************************************************************

 **************************************************************************

                    xk=(   0.24000,   0.24000,   0.24000  )

     Band symmetry, C_3v (3m)   point group:

     e(  1 -  1) =    -23.76675  eV     1   --> A_1  L_1       
     e(  2 -  2) =    -11.32701  eV     1   --> A_1  L_1       
     e(  3 -  4) =     -7.83968  eV     2   --> E    L_3       
     e(  5 -  5) =     -7.82198  eV     1   --> A_1  L_1       
     e(  6 -  6) =      0.33587  eV     1   --> A_1  L_1       
     e(  7 -  8) =      0.65853  eV     2   --> E    L_3       
     e(  9 -  9) =      6.11272  eV     1   --> A_1  L_1       
     e( 10 - 10) =      7.88651  eV     1   --> A_1  L_1       
     e( 11 - 12) =      8.68095  eV     2   --> E    L_3       
     e( 13 - 14) =      9.62094  eV     2   --> E    L_3       
     e( 15 - 15) =     12.88568  eV     1   --> A_1  L_1       
     e( 16 - 16) =     13.54285  eV     1   --> A_1  L_1       
     e( 17 - 18) =     13.90422  eV     2   --> E    L_3       
     e( 19 - 20) =     15.63181  eV     2   --> E    L_3       
     e( 21 - 21) =     16.06943  eV     1   --> A_1  L_1       
     e( 22 - 22) =     18.23765  eV     1   --> A_1  L_1       
     e( 23 - 24) =     18.65284  eV     2   --> E    L_3       

 **************************************************************************

 **************************************************************************

                    xk=(   0.24500,   0.24500,   0.24500  )

     Band symmetry, C_3v (3m)   point group:

     e(  1 -  1) =    -23.76665  eV     1   --> A_1  L_1       
     e(  2 -  2) =    -11.32746  eV     1   --> A_1  L_1       
     e(  3 -  4) =     -7.83979  eV     2   --> E    L_3       
     e(  5 -  5) =     -7.82150  eV     1   --> A_1  L_1       
     e(  6 -  6) =      0.32241  eV     1   --> A_1  L_1       
     e(  7 -  8) =      0.65388  eV     2   --> E    L_3       
     e(  9 -  9) =      6.15067  eV     1   --> A_1  L_1       
     e( 10 - 10) =      7.88758  eV     1   --> A_1  L_1       
     e( 11 - 12) =      8.70611  eV     2   --> E    L_3       
     e( 13 - 14) =      9.64859  eV     2   --> E    L_3       
     e( 15 - 15) =     12.84253  eV     1   --> A_1  L_1       
     e( 16 - 16) =     13.58739  eV     1   --> A_1  L_1       
     e( 17 - 18) =     13.84771  eV     2   --> E    L_3       
     e( 19 - 20) =     15.58711  eV     2   --> E    L_3       
     e( 21 - 21) =     16.01038  eV     1   --> A_1  L_1       
     e( 22 - 22) =     18.24766  eV     1   --> A_1  L_1       
     e( 23 - 24) =     18.67195  eV     2   --> E    L_3       

 **************************************************************************

 **************************************************************************

                    xk=(   0.25000,   0.25000,   0.25000  )

     Band symmetry, C_3v (3m)   point group:

     e(  1 -  1) =    -23.76655  eV     1   --> A_1  L_1       
     e(  2 -  2) =    -11.32791  eV     1   --> A_1  L_1       
     e(  3 -  4) =     -7.83991  eV     2   --> E    L_3       
     e(  5 -  5) =     -7.82102  eV     1   --> A_1  L_1       
     e(  6 -  6) =      0.30904  eV     1   --> A_1  L_1       
     e(  7 -  8) =      0.64923  eV     2   --> E    L_3       
     e(  9 -  9) =      6.18876  eV     1   --> A_1  L_1       
     e( 10 - 10) =      7.88908  eV     1   --> A_1  L_1       
     e( 11 - 12) =      8.73169  eV     2   --> E    L_3       
     e( 13 - 14) =      9.67657  eV     2   --> E    L_3       
     e( 15 - 15) =     12.79579  eV     1   --> A_1  L_1       
     e( 16 - 16) =     13.63617  eV     1   --> A_1  L_1       
     e( 17 - 18) =     13.79123  eV     2   --> E    L_3       
     e( 19 - 20) =     15.54195  eV     2   --> E    L_3       
     e( 21 - 21) =     15.95162  eV     1   --> A_1  L_1       
     e( 22 - 22) =     18.25813  eV     1   --> A_1  L_1       
     e( 23 - 24) =     18.69144  eV     2   --> E    L_3       

 **************************************************************************

 **************************************************************************

                    xk=(   0.25500,   0.25500,   0.25500  )

     Band symmetry, C_3v (3m)   point group:

     e(  1 -  1) =    -23.76645  eV     1   --> A_1  L_1       
     e(  2 -  2) =    -11.32836  eV     1   --> A_1  L_1       
     e(  3 -  4) =     -7.84002  eV     2   --> E    L_3       
     e(  5 -  5) =     -7.82055  eV     1   --> A_1  L_1       
     e(  6 -  6) =      0.29578  eV     1   --> A_1  L_1       
     e(  7 -  8) =      0.64460  eV     2   --> E    L_3       
     e(  9 -  9) =      6.22694  eV     1   --> A_1  L_1       
     e( 10 - 10) =      7.89103  eV     1   --> A_1  L_1       
     e( 11 - 12) =      8.75770  eV     2   --> E    L_3       
     e( 13 - 14) =      9.70485  eV     2   --> E    L_3       
     e( 15 - 15) =     12.74679  eV     1   --> A_1  L_1       
     e( 16 - 16) =     13.68772  eV     1   --> A_1  L_1       
     e( 17 - 18) =     13.73480  eV     2   --> E    L_3       
     e( 19 - 20) =     15.49638  eV     2   --> E    L_3       
     e( 21 - 21) =     15.89337  eV     1   --> A_1  L_1       
     e( 22 - 22) =     18.26901  eV     1   --> A_1  L_1       
     e( 23 - 24) =     18.71128  eV     2   --> E    L_3       

 **************************************************************************

 **************************************************************************

                    xk=(   0.26000,   0.26000,   0.26000  )

     Band symmetry, C_3v (3m)   point group:

     e(  1 -  1) =    -23.76635  eV     1   --> A_1  L_1       
     e(  2 -  2) =    -11.32881  eV     1   --> A_1  L_1       
     e(  3 -  4) =     -7.84013  eV     2   --> E    L_3       
     e(  5 -  5) =     -7.82007  eV     1   --> A_1  L_1       
     e(  6 -  6) =      0.28264  eV     1   --> A_1  L_1       
     e(  7 -  8) =      0.63997  eV     2   --> E    L_3       
     e(  9 -  9) =      6.26518  eV     1   --> A_1  L_1       
     e( 10 - 10) =      7.89343  eV     1   --> A_1  L_1       
     e( 11 - 12) =      8.78413  eV     2   --> E    L_3       
     e( 13 - 14) =      9.73343  eV     2   --> E    L_3       
     e( 15 - 15) =     12.69644  eV     1   --> A_1  L_1       
     e( 16 - 17) =     13.67845  eV     2   --> E    L_3       
     e( 18 - 18) =     13.74097  eV     1   --> A_1  L_1       
     e( 19 - 20) =     15.45044  eV     2   --> E    L_3       
     e( 21 - 21) =     15.83588  eV     1   --> A_1  L_1       
     e( 22 - 22) =     18.28023  eV     1   --> A_1  L_1       
     e( 23 - 24) =     18.73144  eV     2   --> E    L_3       

 **************************************************************************

 **************************************************************************

                    xk=(   0.26500,   0.26500,   0.26500  )

     Band symmetry, C_3v (3m)   point group:

     e(  1 -  1) =    -23.76625  eV     1   --> A_1  L_1       
     e(  2 -  2) =    -11.32925  eV     1   --> A_1  L_1       
     e(  3 -  4) =     -7.84024  eV     2   --> E    L_3       
     e(  5 -  5) =     -7.81959  eV     1   --> A_1  L_1       
     e(  6 -  6) =      0.26962  eV     1   --> A_1  L_1       
     e(  7 -  8) =      0.63537  eV     2   --> E    L_3       
     e(  9 -  9) =      6.30345  eV     1   --> A_1  L_1       
     e( 10 - 10) =      7.89629  eV     1   --> A_1  L_1       
     e( 11 - 12) =      8.81097  eV     2   --> E    L_3       
     e( 13 - 14) =      9.76229  eV     2   --> E    L_3       
     e( 15 - 15) =     12.64533  eV     1   --> A_1  L_1       
     e( 16 - 17) =     13.62218  eV     2   --> E    L_3       
     e( 18 - 18) =     13.79512  eV     1   --> A_1  L_1       
     e( 19 - 20) =     15.40419  eV     2   --> E    L_3       
     e( 21 - 21) =     15.77944  eV     1   --> A_1  L_1       
     e( 22 - 22) =     18.29177  eV     1   --> A_1  L_1       
     e( 23 - 24) =     18.75187  eV     2   --> E    L_3       

 **************************************************************************

 **************************************************************************

                    xk=(   0.27000,   0.27000,   0.27000  )

     Band symmetry, C_3v (3m)   point group:

     e(  1 -  1) =    -23.76615  eV     1   --> A_1  L_1       
     e(  2 -  2) =    -11.32970  eV     1   --> A_1  L_1       
     e(  3 -  4) =     -7.84035  eV     2   --> E    L_3       
     e(  5 -  5) =     -7.81912  eV     1   --> A_1  L_1       
     e(  6 -  6) =      0.25674  eV     1   --> A_1  L_1       
     e(  7 -  8) =      0.63080  eV     2   --> E    L_3       
     e(  9 -  9) =      6.34171  eV     1   --> A_1  L_1       
     e( 10 - 10) =      7.89961  eV     1   --> A_1  L_1       
     e( 11 - 12) =      8.83821  eV     2   --> E    L_3       
     e( 13 - 14) =      9.79139  eV     2   --> E    L_3       
     e( 15 - 15) =     12.59389  eV     1   --> A_1  L_1       
     e( 16 - 17) =     13.56603  eV     2   --> E    L_3       
     e( 18 - 18) =     13.84951  eV     1   --> A_1  L_1       
     e( 19 - 20) =     15.35768  eV     2   --> E    L_3       
     e( 21 - 21) =     15.72438  eV     1   --> A_1  L_1       
     e( 22 - 22) =     18.30358  eV     1   --> A_1  L_1       
     e( 23 - 24) =     18.77255  eV     2   --> E    L_3       

 **************************************************************************

 **************************************************************************

                    xk=(   0.27500,   0.27500,   0.27500  )

     Band symmetry, C_3v (3m)   point group:

     e(  1 -  1) =    -23.76605  eV     1   --> A_1  L_1       
     e(  2 -  2) =    -11.33014  eV     1   --> A_1  L_1       
     e(  3 -  4) =     -7.84046  eV     2   --> E    L_3       
     e(  5 -  5) =     -7.81865  eV     1   --> A_1  L_1       
     e(  6 -  6) =      0.24400  eV     1   --> A_1  L_1       
     e(  7 -  8) =      0.62625  eV     2   --> E    L_3       
     e(  9 -  9) =      6.37992  eV     1   --> A_1  L_1       
     e( 10 - 10) =      7.90338  eV     1   --> A_1  L_1       
     e( 11 - 12) =      8.86585  eV     2   --> E    L_3       
     e( 13 - 14) =      9.82073  eV     2   --> E    L_3       
     e( 15 - 15) =     12.54239  eV     1   --> A_1  L_1       
     e( 16 - 17) =     13.51001  eV     2   --> E    L_3       
     e( 18 - 18) =     13.90355  eV     1   --> A_1  L_1       
     e( 19 - 20) =     15.31095  eV     2   --> E    L_3       
     e( 21 - 21) =     15.67106  eV     1   --> A_1  L_1       
     e( 22 - 22) =     18.31563  eV     1   --> A_1  L_1       
     e( 23 - 24) =     18.79343  eV     2   --> E    L_3       

 **************************************************************************

 **************************************************************************

                    xk=(   0.28000,   0.28000,   0.28000  )

     Band symmetry, C_3v (3m)   point group:

     e(  1 -  1) =    -23.76595  eV     1   --> A_1  L_1       
     e(  2 -  2) =    -11.33058  eV     1   --> A_1  L_1       
     e(  3 -  4) =     -7.84057  eV     2   --> E    L_3       
     e(  5 -  5) =     -7.81818  eV     1   --> A_1  L_1       
[...]

     e(  1 -  1) =    -23.76361  eV     1   --> A_1  L_1       
     e(  2 -  2) =    -11.34092  eV     1   --> A_1  L_1       
     e(  3 -  4) =     -7.84314  eV     2   --> E    L_3       
     e(  5 -  5) =     -7.80716  eV     1   --> A_1  L_1       
     e(  6 -  6) =     -0.04260  eV     1   --> A_1  L_1       
     e(  7 -  8) =      0.51801  eV     2   --> E    L_3       
     e(  9 -  9) =      7.33609  eV     1   --> A_1  L_1       
     e( 10 - 10) =      8.20571  eV     1   --> A_1  L_1       
     e( 11 - 12) =      9.86377  eV     2   --> E    L_3       
     e( 13 - 14) =     10.66520  eV     2   --> E    L_3       
     e( 15 - 15) =     11.34769  eV     1   --> A_1  L_1       
     e( 16 - 17) =     11.97955  eV     2   --> E    L_3       
     e( 18 - 18) =     13.58146  eV     1   --> A_1  L_1       
     e( 19 - 20) =     13.98220  eV     2   --> E    L_3       
     e( 21 - 21) =     16.49744  eV     1   --> A_1  L_1       
     e( 22 - 22) =     18.70299  eV     1   --> A_1  L_1       
     e( 23 - 24) =     19.38437  eV     2   --> E    L_3       

 **************************************************************************

 **************************************************************************

                    xk=(   0.44000,   0.44000,   0.44000  )

     Band symmetry, C_3v (3m)   point group:

     e(  1 -  1) =    -23.76357  eV     1   --> A_1  L_1       
     e(  2 -  2) =    -11.34109  eV     1   --> A_1  L_1       
     e(  3 -  4) =     -7.84318  eV     2   --> E    L_3       
     e(  5 -  5) =     -7.80698  eV     1   --> A_1  L_1       
     e(  6 -  6) =     -0.04679  eV     1   --> A_1  L_1       
     e(  7 -  8) =      0.51635  eV     2   --> E    L_3       
     e(  9 -  9) =      7.35099  eV     1   --> A_1  L_1       
     e( 10 - 10) =      8.21533  eV     1   --> A_1  L_1       
     e( 11 - 12) =      9.89178  eV     2   --> E    L_3       
     e( 13 - 14) =     10.67812  eV     2   --> E    L_3       
     e( 15 - 15) =     11.33058  eV     1   --> A_1  L_1       
     e( 16 - 17) =     11.94998  eV     2   --> E    L_3       
     e( 18 - 18) =     13.55259  eV     1   --> A_1  L_1       
     e( 19 - 20) =     13.95622  eV     2   --> E    L_3       
     e( 21 - 21) =     16.54928  eV     1   --> A_1  L_1       
     e( 22 - 22) =     18.71227  eV     1   --> A_1  L_1       
     e( 23 - 24) =     19.39495  eV     2   --> E    L_3       

 **************************************************************************

 **************************************************************************

                    xk=(   0.44500,   0.44500,   0.44500  )

     Band symmetry, C_3v (3m)   point group:

     e(  1 -  1) =    -23.76354  eV     1   --> A_1  L_1       
     e(  2 -  2) =    -11.34125  eV     1   --> A_1  L_1       
     e(  3 -  4) =     -7.84322  eV     2   --> E    L_3       
     e(  5 -  5) =     -7.80681  eV     1   --> A_1  L_1       
     e(  6 -  6) =     -0.05065  eV     1   --> A_1  L_1       
     e(  7 -  8) =      0.51481  eV     2   --> E    L_3       
     e(  9 -  9) =      7.36473  eV     1   --> A_1  L_1       
     e( 10 - 10) =      8.22441  eV     1   --> A_1  L_1       
     e( 11 - 12) =      9.91868  eV     2   --> E    L_3       
     e( 13 - 14) =     10.68952  eV     2   --> E    L_3       
     e( 15 - 15) =     11.31486  eV     1   --> A_1  L_1       
     e( 16 - 17) =     11.92247  eV     2   --> E    L_3       
     e( 18 - 18) =     13.52564  eV     1   --> A_1  L_1       
     e( 19 - 20) =     13.93197  eV     2   --> E    L_3       
     e( 21 - 21) =     16.59848  eV     1   --> A_1  L_1       
     e( 22 - 22) =     18.72115  eV     1   --> A_1  L_1       
     e( 23 - 24) =     19.40477  eV     2   --> E    L_3       

 **************************************************************************

 **************************************************************************

                    xk=(   0.45000,   0.45000,   0.45000  )

     Band symmetry, C_3v (3m)   point group:

     e(  1 -  1) =    -23.76350  eV     1   --> A_1  L_1       
     e(  2 -  2) =    -11.34139  eV     1   --> A_1  L_1       
     e(  3 -  4) =     -7.84326  eV     2   --> E    L_3       
     e(  5 -  5) =     -7.80666  eV     1   --> A_1  L_1       
     e(  6 -  6) =     -0.05419  eV     1   --> A_1  L_1       
     e(  7 -  8) =      0.51341  eV     2   --> E    L_3       
     e(  9 -  9) =      7.37729  eV     1   --> A_1  L_1       
     e( 10 - 10) =      8.23289  eV     1   --> A_1  L_1       
     e( 11 - 12) =      9.94430  eV     2   --> E    L_3       
     e( 13 - 14) =     10.69939  eV     2   --> E    L_3       
     e( 15 - 15) =     11.30053  eV     1   --> A_1  L_1       
     e( 16 - 17) =     11.89712  eV     2   --> E    L_3       
     e( 18 - 18) =     13.50068  eV     1   --> A_1  L_1       
     e( 19 - 20) =     13.90950  eV     2   --> E    L_3       
     e( 21 - 21) =     16.64473  eV     1   --> A_1  L_1       
     e( 22 - 22) =     18.72959  eV     1   --> A_1  L_1       
     e( 23 - 24) =     19.41380  eV     2   --> E    L_3       

 **************************************************************************

 **************************************************************************

                    xk=(   0.45500,   0.45500,   0.45500  )

     Band symmetry, C_3v (3m)   point group:

     e(  1 -  1) =    -23.76347  eV     1   --> A_1  L_1       
     e(  2 -  2) =    -11.34152  eV     1   --> A_1  L_1       
     e(  3 -  4) =     -7.84329  eV     2   --> E    L_3       
     e(  5 -  5) =     -7.80652  eV     1   --> A_1  L_1       
     e(  6 -  6) =     -0.05739  eV     1   --> A_1  L_1       
     e(  7 -  8) =      0.51213  eV     2   --> E    L_3       
     e(  9 -  9) =      7.38867  eV     1   --> A_1  L_1       
     e( 10 - 10) =      8.24074  eV     1   --> A_1  L_1       
     e( 11 - 12) =      9.96845  eV     2   --> E    L_3       
     e( 13 - 14) =     10.70779  eV     2   --> E    L_3       
     e( 15 - 15) =     11.28759  eV     1   --> A_1  L_1       
     e( 16 - 17) =     11.87401  eV     2   --> E    L_3       
     e( 18 - 18) =     13.47782  eV     1   --> A_1  L_1       
     e( 19 - 20) =     13.88891  eV     2   --> E    L_3       
     e( 21 - 21) =     16.68773  eV     1   --> A_1  L_1       
     e( 22 - 22) =     18.73753  eV     1   --> A_1  L_1       
     e( 23 - 24) =     19.42203  eV     2   --> E    L_3       

 **************************************************************************

 **************************************************************************

                    xk=(   0.46000,   0.46000,   0.46000  )

     Band symmetry, C_3v (3m)   point group:

     e(  1 -  1) =    -23.76345  eV     1   --> A_1  L_1       
     e(  2 -  2) =    -11.34164  eV     1   --> A_1  L_1       
     e(  3 -  4) =     -7.84332  eV     2   --> E    L_3       
     e(  5 -  5) =     -7.80640  eV     1   --> A_1  L_1       
     e(  6 -  6) =     -0.06026  eV     1   --> A_1  L_1       
     e(  7 -  8) =      0.51099  eV     2   --> E    L_3       
     e(  9 -  9) =      7.39887  eV     1   --> A_1  L_1       
     e( 10 - 10) =      8.24789  eV     1   --> A_1  L_1       
     e( 11 - 12) =      9.99094  eV     2   --> E    L_3       
     e( 13 - 14) =     10.71476  eV     2   --> E    L_3       
     e( 15 - 15) =     11.27602  eV     1   --> A_1  L_1       
     e( 16 - 17) =     11.85321  eV     2   --> E    L_3       
     e( 18 - 18) =     13.45714  eV     1   --> A_1  L_1       
     e( 19 - 20) =     13.87027  eV     2   --> E    L_3       
     e( 21 - 21) =     16.72720  eV     1   --> A_1  L_1       
     e( 22 - 22) =     18.74491  eV     1   --> A_1  L_1       
     e( 23 - 24) =     19.42943  eV     2   --> E    L_3       

 **************************************************************************

 **************************************************************************

                    xk=(   0.46500,   0.46500,   0.46500  )

     Band symmetry, C_3v (3m)   point group:

     e(  1 -  1) =    -23.76342  eV     1   --> A_1  L_1       
     e(  2 -  2) =    -11.34174  eV     1   --> A_1  L_1       
     e(  3 -  4) =     -7.84334  eV     2   --> E    L_3       
     e(  5 -  5) =     -7.80629  eV     1   --> A_1  L_1       
     e(  6 -  6) =     -0.06279  eV     1   --> A_1  L_1       
     e(  7 -  8) =      0.50998  eV     2   --> E    L_3       
     e(  9 -  9) =      7.40788  eV     1   --> A_1  L_1       
     e( 10 - 10) =      8.25431  eV     1   --> A_1  L_1       
     e( 11 - 12) =     10.01155  eV     2   --> E    L_3       
     e( 13 - 14) =     10.72039  eV     2   --> E    L_3       
     e( 15 - 15) =     11.26584  eV     1   --> A_1  L_1       
     e( 16 - 17) =     11.83478  eV     2   --> E    L_3       
     e( 18 - 18) =     13.43871  eV     1   --> A_1  L_1       
     e( 19 - 20) =     13.85363  eV     2   --> E    L_3       
     e( 21 - 21) =     16.76283  eV     1   --> A_1  L_1       
     e( 22 - 22) =     18.75167  eV     1   --> A_1  L_1       
     e( 23 - 24) =     19.43600  eV     2   --> E    L_3       

 **************************************************************************

 **************************************************************************

                    xk=(   0.47000,   0.47000,   0.47000  )

     Band symmetry, C_3v (3m)   point group:

     e(  1 -  1) =    -23.76340  eV     1   --> A_1  L_1       
     e(  2 -  2) =    -11.34183  eV     1   --> A_1  L_1       
     e(  3 -  4) =     -7.84336  eV     2   --> E    L_3       
     e(  5 -  5) =     -7.80619  eV     1   --> A_1  L_1       
     e(  6 -  6) =     -0.06499  eV     1   --> A_1  L_1       
     e(  7 -  8) =      0.50910  eV     2   --> E    L_3       
     e(  9 -  9) =      7.41569  eV     1   --> A_1  L_1       
     e( 10 - 10) =      8.25996  eV     1   --> A_1  L_1       
     e( 11 - 12) =     10.03004  eV     2   --> E    L_3       
     e( 13 - 14) =     10.72482  eV     2   --> E    L_3       
     e( 15 - 15) =     11.25702  eV     1   --> A_1  L_1       
     e( 16 - 17) =     11.81876  eV     2   --> E    L_3       
     e( 18 - 18) =     13.42260  eV     1   --> A_1  L_1       
     e( 19 - 20) =     13.83908  eV     2   --> E    L_3       
     e( 21 - 21) =     16.79436  eV     1   --> A_1  L_1       
     e( 22 - 22) =     18.75773  eV     1   --> A_1  L_1       
     e( 23 - 24) =     19.44173  eV     2   --> E    L_3       

 **************************************************************************

 **************************************************************************

                    xk=(   0.47500,   0.47500,   0.47500  )

     Band symmetry, C_3v (3m)   point group:

     e(  1 -  1) =    -23.76338  eV     1   --> A_1  L_1       
     e(  2 -  2) =    -11.34190  eV     1   --> A_1  L_1       
     e(  3 -  4) =     -7.84338  eV     2   --> E    L_3       
     e(  5 -  5) =     -7.80611  eV     1   --> A_1  L_1       
     e(  6 -  6) =     -0.06686  eV     1   --> A_1  L_1       
     e(  7 -  8) =      0.50836  eV     2   --> E    L_3       
     e(  9 -  9) =      7.42231  eV     1   --> A_1  L_1       
     e( 10 - 10) =      8.26480  eV     1   --> A_1  L_1       
     e( 11 - 12) =     10.04620  eV     2   --> E    L_3       
     e( 13 - 14) =     10.72818  eV     2   --> E    L_3       
     e( 15 - 15) =     11.24958  eV     1   --> A_1  L_1       
     e( 16 - 17) =     11.80518  eV     2   --> E    L_3       
     e( 18 - 18) =     13.40886  eV     1   --> A_1  L_1       
     e( 19 - 20) =     13.82665  eV     2   --> E    L_3       
     e( 21 - 21) =     16.82153  eV     1   --> A_1  L_1       
     e( 22 - 22) =     18.76302  eV     1   --> A_1  L_1       
     e( 23 - 24) =     19.44659  eV     2   --> E    L_3       

 **************************************************************************

 **************************************************************************

                    xk=(   0.48000,   0.48000,   0.48000  )

     Band symmetry, C_3v (3m)   point group:

     e(  1 -  1) =    -23.76337  eV     1   --> A_1  L_1       
     e(  2 -  2) =    -11.34196  eV     1   --> A_1  L_1       
     e(  3 -  4) =     -7.84340  eV     2   --> E    L_3       
     e(  5 -  5) =     -7.80604  eV     1   --> A_1  L_1       
     e(  6 -  6) =     -0.06838  eV     1   --> A_1  L_1       
     e(  7 -  8) =      0.50775  eV     2   --> E    L_3       
     e(  9 -  9) =      7.42773  eV     1   --> A_1  L_1       
     e( 10 - 10) =      8.26880  eV     1   --> A_1  L_1       
     e( 11 - 12) =     10.05980  eV     2   --> E    L_3       
     e( 13 - 14) =     10.73063  eV     2   --> E    L_3       
     e( 15 - 15) =     11.24349  eV     1   --> A_1  L_1       
     e( 16 - 17) =     11.79407  eV     2   --> E    L_3       
     e( 18 - 18) =     13.39756  eV     1   --> A_1  L_1       
     e( 19 - 20) =     13.81642  eV     2   --> E    L_3       
     e( 21 - 21) =     16.84410  eV     1   --> A_1  L_1       
     e( 22 - 22) =     18.76748  eV     1   --> A_1  L_1       
     e( 23 - 24) =     19.45058  eV     2   --> E    L_3       

 **************************************************************************

 **************************************************************************

                    xk=(   0.48500,   0.48500,   0.48500  )

     Band symmetry, C_3v (3m)   point group:

     e(  1 -  1) =    -23.76336  eV     1   --> A_1  L_1       
     e(  2 -  2) =    -11.34201  eV     1   --> A_1  L_1       
     e(  3 -  4) =     -7.84341  eV     2   --> E    L_3       
     e(  5 -  5) =     -7.80599  eV     1   --> A_1  L_1       
     e(  6 -  6) =     -0.06957  eV     1   --> A_1  L_1       
     e(  7 -  8) =      0.50727  eV     2   --> E    L_3       
     e(  9 -  9) =      7.43195  eV     1   --> A_1  L_1       
     e( 10 - 10) =      8.27194  eV     1   --> A_1  L_1       
     e( 11 - 12) =     10.07063  eV     2   --> E    L_3       
     e( 13 - 14) =     10.73233  eV     2   --> E    L_3       
     e( 15 - 15) =     11.23876  eV     1   --> A_1  L_1       
     e( 16 - 17) =     11.78542  eV     2   --> E    L_3       
     e( 18 - 18) =     13.38872  eV     1   --> A_1  L_1       
     e( 19 - 20) =     13.80841  eV     2   --> E    L_3       
     e( 21 - 21) =     16.86188  eV     1   --> A_1  L_1       
     e( 22 - 22) =     18.77103  eV     1   --> A_1  L_1       
     e( 23 - 24) =     19.45370  eV     2   --> E    L_3       

 **************************************************************************

 **************************************************************************

                    xk=(   0.49000,   0.49000,   0.49000  )

     Band symmetry, C_3v (3m)   point group:

     e(  1 -  1) =    -23.76335  eV     1   --> A_1  L_1       
     e(  2 -  2) =    -11.34205  eV     1   --> A_1  L_1       
     e(  3 -  4) =     -7.84342  eV     2   --> E    L_3       
     e(  5 -  5) =     -7.80595  eV     1   --> A_1  L_1       
     e(  6 -  6) =     -0.07042  eV     1   --> A_1  L_1       
     e(  7 -  8) =      0.50693  eV     2   --> E    L_3       
     e(  9 -  9) =      7.43496  eV     1   --> A_1  L_1       
     e( 10 - 10) =      8.27420  eV     1   --> A_1  L_1       
     e( 11 - 12) =     10.07850  eV     2   --> E    L_3       
     e( 13 - 14) =     10.73342  eV     2   --> E    L_3       
     e( 15 - 15) =     11.23539  eV     1   --> A_1  L_1       
     e( 16 - 17) =     11.77925  eV     2   --> E    L_3       
     e( 18 - 18) =     13.38238  eV     1   --> A_1  L_1       
     e( 19 - 20) =     13.80266  eV     2   --> E    L_3       
     e( 21 - 21) =     16.87470  eV     1   --> A_1  L_1       
     e( 22 - 22) =     18.77361  eV     1   --> A_1  L_1       
     e( 23 - 24) =     19.45592  eV     2   --> E    L_3       

 **************************************************************************

 **************************************************************************

                    xk=(   0.49500,   0.49500,   0.49500  )

     Band symmetry, C_3v (3m)   point group:

     e(  1 -  1) =    -23.76335  eV     1   --> A_1  L_1       
     e(  2 -  2) =    -11.34207  eV     1   --> A_1  L_1       
     e(  3 -  4) =     -7.84342  eV     2   --> E    L_3       
     e(  5 -  5) =     -7.80593  eV     1   --> A_1  L_1       
     e(  6 -  6) =     -0.07093  eV     1   --> A_1  L_1       
     e(  7 -  8) =      0.50673  eV     2   --> E    L_3       
     e(  9 -  9) =      7.43677  eV     1   --> A_1  L_1       
     e( 10 - 10) =      8.27555  eV     1   --> A_1  L_1       
     e( 11 - 12) =     10.08329  eV     2   --> E    L_3       
     e( 13 - 14) =     10.73403  eV     2   --> E    L_3       
     e( 15 - 15) =     11.23337  eV     1   --> A_1  L_1       
     e( 16 - 17) =     11.77555  eV     2   --> E    L_3       
     e( 18 - 18) =     13.37857  eV     1   --> A_1  L_1       
     e( 19 - 20) =     13.79921  eV     2   --> E    L_3       
     e( 21 - 21) =     16.88244  eV     1   --> A_1  L_1       
     e( 22 - 22) =     18.77517  eV     1   --> A_1  L_1       
     e( 23 - 24) =     19.45726  eV     2   --> E    L_3       

 **************************************************************************

 **************************************************************************

                    xk=(   0.50000,   0.50000,   0.50000  )

     point group D_3d (-3m) 
     there are  6 classes
     the character table:

       E     2C3   3C2'  i     2S6   3s_d 
A_1g   1.00  1.00  1.00  1.00  1.00  1.00
A_2g   1.00  1.00 -1.00  1.00  1.00 -1.00
E_g    2.00 -1.00  0.00  2.00 -1.00  0.00
A_1u   1.00  1.00  1.00 -1.00 -1.00 -1.00
A_2u   1.00  1.00 -1.00 -1.00 -1.00  1.00
E_u    2.00 -1.00  0.00 -2.00  1.00  0.00

     the symmetry operations in each class and the name of the first element:

     E        1
                                                                 
     2C3      5    6
                                                                 
     3C2'     2    4    3
                                                                 
     i        7
                                                                 
     2S6     11   12
                                                                 
     3s_d     8   10    9
                                                                 

     Band symmetry, D_3d (-3m)  point group:

     e(  1 -  1) =    -23.76334  eV     1   --> A_1g L_1       
     e(  2 -  2) =    -11.34207  eV     1   --> A_2u L_2'      
     e(  3 -  4) =     -7.84343  eV     2   --> E_u  L_3'      
     e(  5 -  5) =     -7.80592  eV     1   --> A_2u L_2'      
     e(  6 -  6) =     -0.07110  eV     1   --> A_1g L_1       
     e(  7 -  8) =      0.50666  eV     2   --> E_g  L_3       
     e(  9 -  9) =      7.43737  eV     1   --> A_2u L_2'      
     e( 10 - 10) =      8.27601  eV     1   --> A_1g L_1       
     e( 11 - 12) =     10.08489  eV     2   --> E_g  L_3       
     e( 13 - 14) =     10.73422  eV     2   --> E_u  L_3'      
     e( 15 - 15) =     11.23269  eV     1   --> A_1g L_1       
     e( 16 - 17) =     11.77431  eV     2   --> E_g  L_3       
     e( 18 - 18) =     13.37730  eV     1   --> A_2u L_2'      
     e( 19 - 20) =     13.79805  eV     2   --> E_u  L_3'      
     e( 21 - 21) =     16.88503  eV     1   --> A_1g L_1       
     e( 22 - 22) =     18.77570  eV     1   --> A_2u L_2'      
     e( 23 - 24) =     19.45771  eV     2   --> E_g  L_3       

 **************************************************************************
 
     BANDS        :     10.29s CPU     11.20s WALL

 
   This run was terminated on:  12: 7:17  23Jun2022            

=------------------------------------------------------------------------------=
   JOB DONE.
=------------------------------------------------------------------------------=
