
     Program PWSCF v.6.6 starts on 23Jun2022 at 12: 6:56 

     This program is part of the open-source Quantum ESPRESSO suite
     for quantum simulation of materials; please cite
         "P. Giannozzi et al., J. Phys.:Condens. Matter 21 395502 (2009);
         "P. Giannozzi et al., J. Phys.:Condens. Matter 29 465901 (2017);
          URL http://www.quantum-espresso.org", 
     in publications or presentations arising from this work. More details at
     http://www.quantum-espresso.org/quote

     Parallel version (MPI), running on    40 processors

     MPI processes distributed on     1 nodes
     K-points division:     npool     =      40
     Fft bands division:     nmany     =       1
     Waiting for input...
     Reading input from standard input
Warning: card &IONS ignored
Warning: card / ignored
Warning: card &CELL ignored
Warning: card PRESS_CONV_THR=0.1 ignored
Warning: card / ignored

     Current dimensions of program PWSCF are:
     Max number of different atomic species (ntypx) = 10
     Max number of k-points (npk) =  40000
     Max angular momentum in pseudopotentials (lmaxx) =  3

     Atomic positions and unit cell read from directory:
     ./rbbr.save/
     Atomic positions from file used, from input discarded
 
     file Rb.pbe-spn-kjpaw_psl.1.0.0.UPF: wavefunction(s)  4S renormalized
     file Br.pbe-n-kjpaw_psl.1.0.0.UPF: wavefunction(s)  4S 4P renormalized

     Subspace diagonalization in iterative solution of the eigenvalue problem:
     a serial algorithm will be used

 
     G-vector sticks info
     --------------------
     sticks:   dense  smooth     PW     G-vecs:    dense   smooth      PW
     Sum        1597    1597    439                42087    42087    6183
 


     bravais-lattice index     =            2
     lattice parameter (alat)  =      13.2560  a.u.
     unit-cell volume          =     582.3356 (a.u.)^3
     number of atoms/cell      =            2
     number of atomic types    =            2
     number of electrons       =        16.00
     number of Kohn-Sham states=           24
     kinetic-energy cutoff     =      66.0000  Ry
     charge density cutoff     =     264.0000  Ry
     Exchange-correlation= SLA PW PBX PBC
                           (   1   4   3   4   0   0   0)

     celldm(1)=  13.255958  celldm(2)=   0.000000  celldm(3)=   0.000000
     celldm(4)=   0.000000  celldm(5)=   0.000000  celldm(6)=   0.000000

     crystal axes: (cart. coord. in units of alat)
               a(1) = (  -0.500000   0.000000   0.500000 )  
               a(2) = (   0.000000   0.500000   0.500000 )  
               a(3) = (  -0.500000   0.500000   0.000000 )  

     reciprocal axes: (cart. coord. in units 2 pi/alat)
               b(1) = ( -1.000000 -1.000000  1.000000 )  
               b(2) = (  1.000000  1.000000  1.000000 )  
               b(3) = ( -1.000000  1.000000 -1.000000 )  


     PseudoPot. # 1 for Rb read from file:
     /scratch1/fanchem/RbBr/pp/Rb.pbe-spn-kjpaw_psl.1.0.0.UPF
     MD5 check sum: a11e6fb9d11e64d6427b9eb26aa4a0b1
     Pseudo is Projector augmented-wave + core cor, Zval =  9.0
     Generated using "atomic" code by A. Dal Corso v.6.2.2
     Shape of augmentation charge: PSQ
     Using radial grid of 1219 points,  6 beta functions with: 
                l(1) =   0
                l(2) =   0
                l(3) =   1
                l(4) =   1
                l(5) =   2
                l(6) =   2
     Q(r) pseudized with 0 coefficients 


     PseudoPot. # 2 for Br read from file:
     /scratch1/fanchem/RbBr/pp/Br.pbe-n-kjpaw_psl.1.0.0.UPF
     MD5 check sum: b00de77caabc69c0a6b76eb37264f235
     Pseudo is Projector augmented-wave + core cor, Zval =  7.0
     Generated using "atomic" code by A. Dal Corso v.6.3
     Shape of augmentation charge: PSQ
     Using radial grid of 1213 points,  4 beta functions with: 
                l(1) =   0
                l(2) =   0
                l(3) =   1
                l(4) =   1
     Q(r) pseudized with 0 coefficients 


     atomic species   valence    mass     pseudopotential
        Rb             9.00    85.46780     Rb( 1.00)
        Br             7.00    79.90400     Br( 1.00)

     48 Sym. Ops., with inversion, found


                                    s                        frac. trans.

      isym =  1     identity                                     

 cryst.   s( 1) = (     1          0          0      )
                  (     0          1          0      )
                  (     0          0          1      )

 cart.    s( 1) = (  1.0000000  0.0000000  0.0000000 )
                  (  0.0000000  1.0000000  0.0000000 )
                  (  0.0000000  0.0000000  1.0000000 )


      isym =  2     180 deg rotation - cart. axis [0,0,1]        

 cryst.   s( 2) = (     0          1         -1      )
                  (     1          0         -1      )
                  (     0          0         -1      )

 cart.    s( 2) = ( -1.0000000  0.0000000  0.0000000 )
                  (  0.0000000 -1.0000000  0.0000000 )
                  (  0.0000000  0.0000000  1.0000000 )


      isym =  3     180 deg rotation - cart. axis [0,1,0]        

 cryst.   s( 3) = (    -1          0          0      )
                  (    -1          0          1      )
                  (    -1          1          0      )

 cart.    s( 3) = ( -1.0000000  0.0000000  0.0000000 )
                  (  0.0000000  1.0000000  0.0000000 )
                  (  0.0000000  0.0000000 -1.0000000 )


      isym =  4     180 deg rotation - cart. axis [1,0,0]        

 cryst.   s( 4) = (     0         -1          1      )
                  (     0         -1          0      )
                  (     1         -1          0      )

 cart.    s( 4) = (  1.0000000  0.0000000  0.0000000 )
                  (  0.0000000 -1.0000000  0.0000000 )
                  (  0.0000000  0.0000000 -1.0000000 )


      isym =  5     180 deg rotation - cart. axis [1,1,0]        

 cryst.   s( 5) = (     0         -1          0      )
                  (    -1          0          0      )
                  (     0          0         -1      )

 cart.    s( 5) = (  0.0000000  1.0000000  0.0000000 )
                  (  1.0000000  0.0000000  0.0000000 )
                  (  0.0000000  0.0000000 -1.0000000 )


      isym =  6     180 deg rotation - cart. axis [1,-1,0]       

 cryst.   s( 6) = (    -1          0          1      )
                  (     0         -1          1      )
                  (     0          0          1      )

 cart.    s( 6) = (  0.0000000 -1.0000000  0.0000000 )
                  ( -1.0000000  0.0000000  0.0000000 )
                  (  0.0000000  0.0000000 -1.0000000 )


      isym =  7      90 deg rotation - cart. axis [0,0,-1]       

 cryst.   s( 7) = (     0          1          0      )
                  (     0          1         -1      )
                  (    -1          1          0      )

 cart.    s( 7) = (  0.0000000  1.0000000  0.0000000 )
                  ( -1.0000000  0.0000000  0.0000000 )
                  (  0.0000000  0.0000000  1.0000000 )


      isym =  8      90 deg rotation - cart. axis [0,0,1]        

 cryst.   s( 8) = (     1          0         -1      )
                  (     1          0          0      )
                  (     1         -1          0      )

 cart.    s( 8) = (  0.0000000 -1.0000000  0.0000000 )
                  (  1.0000000  0.0000000  0.0000000 )
                  (  0.0000000  0.0000000  1.0000000 )


      isym =  9     180 deg rotation - cart. axis [1,0,1]        

 cryst.   s( 9) = (    -1          0          0      )
                  (     0          0         -1      )
                  (     0         -1          0      )

 cart.    s( 9) = (  0.0000000  0.0000000  1.0000000 )
                  (  0.0000000 -1.0000000  0.0000000 )
                  (  1.0000000  0.0000000  0.0000000 )


      isym = 10     180 deg rotation - cart. axis [-1,0,1]       

 cryst.   s(10) = (     1          0          0      )
                  (     1         -1          0      )
                  (     1          0         -1      )

 cart.    s(10) = (  0.0000000  0.0000000 -1.0000000 )
                  (  0.0000000 -1.0000000  0.0000000 )
                  ( -1.0000000  0.0000000  0.0000000 )


      isym = 11      90 deg rotation - cart. axis [0,1,0]        

 cryst.   s(11) = (     0          1         -1      )
                  (    -1          1          0      )
                  (     0          1          0      )

 cart.    s(11) = (  0.0000000  0.0000000  1.0000000 )
                  (  0.0000000  1.0000000  0.0000000 )
                  ( -1.0000000  0.0000000  0.0000000 )


      isym = 12      90 deg rotation - cart. axis [0,-1,0]       

 cryst.   s(12) = (     0         -1          1      )
                  (     0          0          1      )
                  (    -1          0          1      )

 cart.    s(12) = (  0.0000000  0.0000000 -1.0000000 )
                  (  0.0000000  1.0000000  0.0000000 )
                  (  1.0000000  0.0000000  0.0000000 )


      isym = 13     180 deg rotation - cart. axis [0,1,1]        

 cryst.   s(13) = (    -1          1          0      )
                  (     0          1          0      )
                  (     0          1         -1      )

 cart.    s(13) = ( -1.0000000  0.0000000  0.0000000 )
                  (  0.0000000  0.0000000  1.0000000 )
                  (  0.0000000  1.0000000  0.0000000 )


      isym = 14     180 deg rotation - cart. axis [0,1,-1]       

 cryst.   s(14) = (     0          0         -1      )
                  (     0         -1          0      )
                  (    -1          0          0      )

 cart.    s(14) = ( -1.0000000  0.0000000  0.0000000 )
                  (  0.0000000  0.0000000 -1.0000000 )
                  (  0.0000000 -1.0000000  0.0000000 )


      isym = 15      90 deg rotation - cart. axis [-1,0,0]       

 cryst.   s(15) = (     0          0          1      )
                  (    -1          0          1      )
                  (     0         -1          1      )

 cart.    s(15) = (  1.0000000  0.0000000  0.0000000 )
                  (  0.0000000  0.0000000  1.0000000 )
                  (  0.0000000 -1.0000000  0.0000000 )


      isym = 16      90 deg rotation - cart. axis [1,0,0]        

 cryst.   s(16) = (     1         -1          0      )
                  (     1          0         -1      )
                  (     1          0          0      )

 cart.    s(16) = (  1.0000000  0.0000000  0.0000000 )
                  (  0.0000000  0.0000000 -1.0000000 )
                  (  0.0000000  1.0000000  0.0000000 )


      isym = 17     120 deg rotation - cart. axis [-1,-1,-1]     

 cryst.   s(17) = (    -1          0          1      )
                  (    -1          1          0      )
                  (    -1          0          0      )

 cart.    s(17) = (  0.0000000  1.0000000  0.0000000 )
                  (  0.0000000  0.0000000  1.0000000 )
                  (  1.0000000  0.0000000  0.0000000 )


      isym = 18     120 deg rotation - cart. axis [-1,1,1]       

 cryst.   s(18) = (     0          1          0      )
                  (     0          0          1      )
                  (     1          0          0      )

 cart.    s(18) = (  0.0000000 -1.0000000  0.0000000 )
                  (  0.0000000  0.0000000  1.0000000 )
                  ( -1.0000000  0.0000000  0.0000000 )


      isym = 19     120 deg rotation - cart. axis [1,1,-1]       

 cryst.   s(19) = (     1          0         -1      )
                  (     0          0         -1      )
                  (     0          1         -1      )

 cart.    s(19) = (  0.0000000  1.0000000  0.0000000 )
                  (  0.0000000  0.0000000 -1.0000000 )
                  ( -1.0000000  0.0000000  0.0000000 )


      isym = 20     120 deg rotation - cart. axis [1,-1,1]       

 cryst.   s(20) = (     0         -1          0      )
                  (     1         -1          0      )
                  (     0         -1          1      )

 cart.    s(20) = (  0.0000000 -1.0000000  0.0000000 )
                  (  0.0000000  0.0000000 -1.0000000 )
                  (  1.0000000  0.0000000  0.0000000 )


      isym = 21     120 deg rotation - cart. axis [1,1,1]        

 cryst.   s(21) = (     0          0         -1      )
                  (     0          1         -1      )
                  (     1          0         -1      )

 cart.    s(21) = (  0.0000000  0.0000000  1.0000000 )
                  (  1.0000000  0.0000000  0.0000000 )
                  (  0.0000000  1.0000000  0.0000000 )


      isym = 22     120 deg rotation - cart. axis [-1,1,-1]      

 cryst.   s(22) = (    -1          1          0      )
                  (    -1          0          0      )
                  (    -1          0          1      )

 cart.    s(22) = (  0.0000000  0.0000000  1.0000000 )
                  ( -1.0000000  0.0000000  0.0000000 )
                  (  0.0000000 -1.0000000  0.0000000 )


      isym = 23     120 deg rotation - cart. axis [1,-1,-1]      

 cryst.   s(23) = (     0          0          1      )
                  (     1          0          0      )
                  (     0          1          0      )

 cart.    s(23) = (  0.0000000  0.0000000 -1.0000000 )
                  ( -1.0000000  0.0000000  0.0000000 )
                  (  0.0000000  1.0000000  0.0000000 )


      isym = 24     120 deg rotation - cart. axis [-1,-1,1]      

 cryst.   s(24) = (     1         -1          0      )
                  (     0         -1          1      )
                  (     0         -1          0      )

 cart.    s(24) = (  0.0000000  0.0000000 -1.0000000 )
                  (  1.0000000  0.0000000  0.0000000 )
                  (  0.0000000 -1.0000000  0.0000000 )


      isym = 25     inversion                                    

 cryst.   s(25) = (    -1          0          0      )
                  (     0         -1          0      )
                  (     0          0         -1      )

 cart.    s(25) = ( -1.0000000  0.0000000  0.0000000 )
                  (  0.0000000 -1.0000000  0.0000000 )
                  (  0.0000000  0.0000000 -1.0000000 )


      isym = 26     inv. 180 deg rotation - cart. axis [0,0,1]   

 cryst.   s(26) = (     0         -1          1      )
                  (    -1          0          1      )
                  (     0          0          1      )

 cart.    s(26) = (  1.0000000  0.0000000  0.0000000 )
                  (  0.0000000  1.0000000  0.0000000 )
                  (  0.0000000  0.0000000 -1.0000000 )


      isym = 27     inv. 180 deg rotation - cart. axis [0,1,0]   

 cryst.   s(27) = (     1          0          0      )
                  (     1          0         -1      )
                  (     1         -1          0      )

 cart.    s(27) = (  1.0000000  0.0000000  0.0000000 )
                  (  0.0000000 -1.0000000  0.0000000 )
                  (  0.0000000  0.0000000  1.0000000 )


      isym = 28     inv. 180 deg rotation - cart. axis [1,0,0]   

 cryst.   s(28) = (     0          1         -1      )
                  (     0          1          0      )
                  (    -1          1          0      )

 cart.    s(28) = ( -1.0000000  0.0000000  0.0000000 )
                  (  0.0000000  1.0000000  0.0000000 )
                  (  0.0000000  0.0000000  1.0000000 )


      isym = 29     inv. 180 deg rotation - cart. axis [1,1,0]   

 cryst.   s(29) = (     0          1          0      )
                  (     1          0          0      )
                  (     0          0          1      )

 cart.    s(29) = (  0.0000000 -1.0000000  0.0000000 )
                  ( -1.0000000  0.0000000  0.0000000 )
                  (  0.0000000  0.0000000  1.0000000 )


      isym = 30     inv. 180 deg rotation - cart. axis [1,-1,0]  

 cryst.   s(30) = (     1          0         -1      )
                  (     0          1         -1      )
                  (     0          0         -1      )

 cart.    s(30) = (  0.0000000  1.0000000  0.0000000 )
                  (  1.0000000  0.0000000  0.0000000 )
                  (  0.0000000  0.0000000  1.0000000 )


      isym = 31     inv.  90 deg rotation - cart. axis [0,0,-1]  

 cryst.   s(31) = (     0         -1          0      )
                  (     0         -1          1      )
                  (     1         -1          0      )

 cart.    s(31) = (  0.0000000 -1.0000000  0.0000000 )
                  (  1.0000000  0.0000000  0.0000000 )
                  (  0.0000000  0.0000000 -1.0000000 )


      isym = 32     inv.  90 deg rotation - cart. axis [0,0,1]   

 cryst.   s(32) = (    -1          0          1      )
                  (    -1          0          0      )
                  (    -1          1          0      )

 cart.    s(32) = (  0.0000000  1.0000000  0.0000000 )
                  ( -1.0000000  0.0000000  0.0000000 )
                  (  0.0000000  0.0000000 -1.0000000 )


      isym = 33     inv. 180 deg rotation - cart. axis [1,0,1]   

 cryst.   s(33) = (     1          0          0      )
                  (     0          0          1      )
                  (     0          1          0      )

 cart.    s(33) = (  0.0000000  0.0000000 -1.0000000 )
                  (  0.0000000  1.0000000  0.0000000 )
                  ( -1.0000000  0.0000000  0.0000000 )


      isym = 34     inv. 180 deg rotation - cart. axis [-1,0,1]  

 cryst.   s(34) = (    -1          0          0      )
                  (    -1          1          0      )
                  (    -1          0          1      )

 cart.    s(34) = (  0.0000000  0.0000000  1.0000000 )
                  (  0.0000000  1.0000000  0.0000000 )
                  (  1.0000000  0.0000000  0.0000000 )


      isym = 35     inv.  90 deg rotation - cart. axis [0,1,0]   

 cryst.   s(35) = (     0         -1          1      )
                  (     1         -1          0      )
                  (     0         -1          0      )

 cart.    s(35) = (  0.0000000  0.0000000 -1.0000000 )
                  (  0.0000000 -1.0000000  0.0000000 )
                  (  1.0000000  0.0000000  0.0000000 )


      isym = 36     inv.  90 deg rotation - cart. axis [0,-1,0]  

 cryst.   s(36) = (     0          1         -1      )
                  (     0          0         -1      )
                  (     1          0         -1      )

 cart.    s(36) = (  0.0000000  0.0000000  1.0000000 )
                  (  0.0000000 -1.0000000  0.0000000 )
                  ( -1.0000000  0.0000000  0.0000000 )


      isym = 37     inv. 180 deg rotation - cart. axis [0,1,1]   

 cryst.   s(37) = (     1         -1          0      )
                  (     0         -1          0      )
                  (     0         -1          1      )

 cart.    s(37) = (  1.0000000  0.0000000  0.0000000 )
                  (  0.0000000  0.0000000 -1.0000000 )
                  (  0.0000000 -1.0000000  0.0000000 )


      isym = 38     inv. 180 deg rotation - cart. axis [0,1,-1]  

 cryst.   s(38) = (     0          0          1      )
                  (     0          1          0      )
                  (     1          0          0      )

 cart.    s(38) = (  1.0000000  0.0000000  0.0000000 )
                  (  0.0000000  0.0000000  1.0000000 )
                  (  0.0000000  1.0000000  0.0000000 )


      isym = 39     inv.  90 deg rotation - cart. axis [-1,0,0]  

 cryst.   s(39) = (     0          0         -1      )
                  (     1          0         -1      )
                  (     0          1         -1      )

 cart.    s(39) = ( -1.0000000  0.0000000  0.0000000 )
                  (  0.0000000  0.0000000 -1.0000000 )
                  (  0.0000000  1.0000000  0.0000000 )


      isym = 40     inv.  90 deg rotation - cart. axis [1,0,0]   

 cryst.   s(40) = (    -1          1          0      )
                  (    -1          0          1      )
                  (    -1          0          0      )

 cart.    s(40) = ( -1.0000000  0.0000000  0.0000000 )
                  (  0.0000000  0.0000000  1.0000000 )
                  (  0.0000000 -1.0000000  0.0000000 )


      isym = 41     inv. 120 deg rotation - cart. axis [-1,-1,-1]

 cryst.   s(41) = (     1          0         -1      )
                  (     1         -1          0      )
                  (     1          0          0      )

 cart.    s(41) = (  0.0000000 -1.0000000  0.0000000 )
                  (  0.0000000  0.0000000 -1.0000000 )
                  ( -1.0000000  0.0000000  0.0000000 )


      isym = 42     inv. 120 deg rotation - cart. axis [-1,1,1]  

 cryst.   s(42) = (     0         -1          0      )
                  (     0          0         -1      )
                  (    -1          0          0      )

 cart.    s(42) = (  0.0000000  1.0000000  0.0000000 )
                  (  0.0000000  0.0000000 -1.0000000 )
                  (  1.0000000  0.0000000  0.0000000 )


      isym = 43     inv. 120 deg rotation - cart. axis [1,1,-1]  

 cryst.   s(43) = (    -1          0          1      )
                  (     0          0          1      )
                  (     0         -1          1      )

 cart.    s(43) = (  0.0000000 -1.0000000  0.0000000 )
                  (  0.0000000  0.0000000  1.0000000 )
                  (  1.0000000  0.0000000  0.0000000 )


      isym = 44     inv. 120 deg rotation - cart. axis [1,-1,1]  

 cryst.   s(44) = (     0          1          0      )
                  (    -1          1          0      )
                  (     0          1         -1      )

 cart.    s(44) = (  0.0000000  1.0000000  0.0000000 )
                  (  0.0000000  0.0000000  1.0000000 )
                  ( -1.0000000  0.0000000  0.0000000 )


      isym = 45     inv. 120 deg rotation - cart. axis [1,1,1]   

 cryst.   s(45) = (     0          0          1      )
                  (     0         -1          1      )
                  (    -1          0          1      )

 cart.    s(45) = (  0.0000000  0.0000000 -1.0000000 )
                  ( -1.0000000  0.0000000  0.0000000 )
                  (  0.0000000 -1.0000000  0.0000000 )


      isym = 46     inv. 120 deg rotation - cart. axis [-1,1,-1] 

 cryst.   s(46) = (     1         -1          0      )
                  (     1          0          0      )
                  (     1          0         -1      )

 cart.    s(46) = (  0.0000000  0.0000000 -1.0000000 )
                  (  1.0000000  0.0000000  0.0000000 )
                  (  0.0000000  1.0000000  0.0000000 )


      isym = 47     inv. 120 deg rotation - cart. axis [1,-1,-1] 

 cryst.   s(47) = (     0          0         -1      )
                  (    -1          0          0      )
                  (     0         -1          0      )

 cart.    s(47) = (  0.0000000  0.0000000  1.0000000 )
                  (  1.0000000  0.0000000  0.0000000 )
                  (  0.0000000 -1.0000000  0.0000000 )


      isym = 48     inv. 120 deg rotation - cart. axis [-1,-1,1] 

 cryst.   s(48) = (    -1          1          0      )
                  (     0          1         -1      )
                  (     0          1          0      )

 cart.    s(48) = (  0.0000000  0.0000000  1.0000000 )
                  ( -1.0000000  0.0000000  0.0000000 )
                  (  0.0000000  1.0000000  0.0000000 )


     point group O_h (m-3m) 
     there are 10 classes
     the character table:

       E     8C3   3C2   6C4   6C2'  i     8S6   3s_h  6S4   6s_d 
A_1g   1.00  1.00  1.00  1.00  1.00  1.00  1.00  1.00  1.00  1.00
A_2g   1.00  1.00  1.00 -1.00 -1.00  1.00  1.00  1.00 -1.00 -1.00
E_g    2.00 -1.00  2.00  0.00  0.00  2.00 -1.00  2.00  0.00  0.00
T_1g   3.00  0.00 -1.00  1.00 -1.00  3.00  0.00 -1.00  1.00 -1.00
T_2g   3.00  0.00 -1.00 -1.00  1.00  3.00  0.00 -1.00 -1.00  1.00
A_1u   1.00  1.00  1.00  1.00  1.00 -1.00 -1.00 -1.00 -1.00 -1.00
A_2u   1.00  1.00  1.00 -1.00 -1.00 -1.00 -1.00 -1.00  1.00  1.00
E_u    2.00 -1.00  2.00  0.00  0.00 -2.00  1.00 -2.00  0.00  0.00
T_1u   3.00  0.00 -1.00  1.00 -1.00 -3.00  0.00  1.00 -1.00  1.00
T_2u   3.00  0.00 -1.00 -1.00  1.00 -3.00  0.00  1.00  1.00 -1.00

     the symmetry operations in each class and the name of the first element:

     E        1
          identity                                               
     8C3     17   19   20   18   24   21   22   23
          120 deg rotation - cart. axis [-1,-1,-1]               
     3C2      2    4    3
          180 deg rotation - cart. axis [0,0,1]                  
     6C4      7    8   15   16   12   11
           90 deg rotation - cart. axis [0,0,-1]                 
     6C2'     5    6   14   13   10    9
          180 deg rotation - cart. axis [1,1,0]                  
     i       25
          inversion                                              
     8S6     41   43   44   42   48   45   46   47
          inv. 120 deg rotation - cart. axis [-1,-1,-1]          
     3s_h    26   28   27
          inv. 180 deg rotation - cart. axis [0,0,1]             
     6S4     31   32   39   40   36   35
          inv.  90 deg rotation - cart. axis [0,0,-1]            
     6s_d    29   30   38   37   34   33
          inv. 180 deg rotation - cart. axis [1,1,0]             

   Cartesian axes

     site n.     atom                  positions (alat units)
         1           Rb  tau(   1) = (   0.0000000   0.0000000   0.0000000  )
         2           Br  tau(   2) = (  -0.5000000   0.5000000   0.5000000  )

   Crystallographic axes

     site n.     atom                  positions (cryst. coord.)
         1           Rb  tau(   1) = (  0.0000000  0.0000000  0.0000000  )
         2           Br  tau(   2) = (  0.5000000  0.5000000  0.5000000  )

     number of k points=   101
                       cart. coord. in units 2pi/alat
        k(    1) = (   0.0000000   0.0000000   0.0000000), wk =   0.0198020
        k(    2) = (   0.0050000   0.0050000   0.0050000), wk =   0.0198020
        k(    3) = (   0.0100000   0.0100000   0.0100000), wk =   0.0198020
        k(    4) = (   0.0150000   0.0150000   0.0150000), wk =   0.0198020
        k(    5) = (   0.0200000   0.0200000   0.0200000), wk =   0.0198020
        k(    6) = (   0.0250000   0.0250000   0.0250000), wk =   0.0198020
        k(    7) = (   0.0300000   0.0300000   0.0300000), wk =   0.0198020
        k(    8) = (   0.0350000   0.0350000   0.0350000), wk =   0.0198020
        k(    9) = (   0.0400000   0.0400000   0.0400000), wk =   0.0198020
        k(   10) = (   0.0450000   0.0450000   0.0450000), wk =   0.0198020
        k(   11) = (   0.0500000   0.0500000   0.0500000), wk =   0.0198020
        k(   12) = (   0.0550000   0.0550000   0.0550000), wk =   0.0198020
        k(   13) = (   0.0600000   0.0600000   0.0600000), wk =   0.0198020
        k(   14) = (   0.0650000   0.0650000   0.0650000), wk =   0.0198020
        k(   15) = (   0.0700000   0.0700000   0.0700000), wk =   0.0198020
        k(   16) = (   0.0750000   0.0750000   0.0750000), wk =   0.0198020
        k(   17) = (   0.0800000   0.0800000   0.0800000), wk =   0.0198020
        k(   18) = (   0.0850000   0.0850000   0.0850000), wk =   0.0198020
        k(   19) = (   0.0900000   0.0900000   0.0900000), wk =   0.0198020
        k(   20) = (   0.0950000   0.0950000   0.0950000), wk =   0.0198020
        k(   21) = (   0.1000000   0.1000000   0.1000000), wk =   0.0198020
        k(   22) = (   0.1050000   0.1050000   0.1050000), wk =   0.0198020
        k(   23) = (   0.1100000   0.1100000   0.1100000), wk =   0.0198020
        k(   24) = (   0.1150000   0.1150000   0.1150000), wk =   0.0198020
        k(   25) = (   0.1200000   0.1200000   0.1200000), wk =   0.0198020
        k(   26) = (   0.1250000   0.1250000   0.1250000), wk =   0.0198020
        k(   27) = (   0.1300000   0.1300000   0.1300000), wk =   0.0198020
        k(   28) = (   0.1350000   0.1350000   0.1350000), wk =   0.0198020
        k(   29) = (   0.1400000   0.1400000   0.1400000), wk =   0.0198020
        k(   30) = (   0.1450000   0.1450000   0.1450000), wk =   0.0198020
        k(   31) = (   0.1500000   0.1500000   0.1500000), wk =   0.0198020
        k(   32) = (   0.1550000   0.1550000   0.1550000), wk =   0.0198020
        k(   33) = (   0.1600000   0.1600000   0.1600000), wk =   0.0198020
        k(   34) = (   0.1650000   0.1650000   0.1650000), wk =   0.0198020
        k(   35) = (   0.1700000   0.1700000   0.1700000), wk =   0.0198020
        k(   36) = (   0.1750000   0.1750000   0.1750000), wk =   0.0198020
        k(   37) = (   0.1800000   0.1800000   0.1800000), wk =   0.0198020
        k(   38) = (   0.1850000   0.1850000   0.1850000), wk =   0.0198020
        k(   39) = (   0.1900000   0.1900000   0.1900000), wk =   0.0198020
        k(   40) = (   0.1950000   0.1950000   0.1950000), wk =   0.0198020
        k(   41) = (   0.2000000   0.2000000   0.2000000), wk =   0.0198020
        k(   42) = (   0.2050000   0.2050000   0.2050000), wk =   0.0198020
        k(   43) = (   0.2100000   0.2100000   0.2100000), wk =   0.0198020
        k(   44) = (   0.2150000   0.2150000   0.2150000), wk =   0.0198020
        k(   45) = (   0.2200000   0.2200000   0.2200000), wk =   0.0198020
        k(   46) = (   0.2250000   0.2250000   0.2250000), wk =   0.0198020
        k(   47) = (   0.2300000   0.2300000   0.2300000), wk =   0.0198020
        k(   48) = (   0.2350000   0.2350000   0.2350000), wk =   0.0198020
        k(   49) = (   0.2400000   0.2400000   0.2400000), wk =   0.0198020
        k(   50) = (   0.2450000   0.2450000   0.2450000), wk =   0.0198020
        k(   51) = (   0.2500000   0.2500000   0.2500000), wk =   0.0198020
        k(   52) = (   0.2550000   0.2550000   0.2550000), wk =   0.0198020
        k(   53) = (   0.2600000   0.2600000   0.2600000), wk =   0.0198020
        k(   54) = (   0.2650000   0.2650000   0.2650000), wk =   0.0198020
        k(   55) = (   0.2700000   0.2700000   0.2700000), wk =   0.0198020
        k(   56) = (   0.2750000   0.2750000   0.2750000), wk =   0.0198020
        k(   57) = (   0.2800000   0.2800000   0.2800000), wk =   0.0198020
        k(   58) = (   0.2850000   0.2850000   0.2850000), wk =   0.0198020
        k(   59) = (   0.2900000   0.2900000   0.2900000), wk =   0.0198020
        k(   60) = (   0.2950000   0.2950000   0.2950000), wk =   0.0198020
        k(   61) = (   0.3000000   0.3000000   0.3000000), wk =   0.0198020
        k(   62) = (   0.3050000   0.3050000   0.3050000), wk =   0.0198020
        k(   63) = (   0.3100000   0.3100000   0.3100000), wk =   0.0198020
        k(   64) = (   0.3150000   0.3150000   0.3150000), wk =   0.0198020
        k(   65) = (   0.3200000   0.3200000   0.3200000), wk =   0.0198020
        k(   66) = (   0.3250000   0.3250000   0.3250000), wk =   0.0198020
        k(   67) = (   0.3300000   0.3300000   0.3300000), wk =   0.0198020
        k(   68) = (   0.3350000   0.3350000   0.3350000), wk =   0.0198020
        k(   69) = (   0.3400000   0.3400000   0.3400000), wk =   0.0198020
        k(   70) = (   0.3450000   0.3450000   0.3450000), wk =   0.0198020
        k(   71) = (   0.3500000   0.3500000   0.3500000), wk =   0.0198020
        k(   72) = (   0.3550000   0.3550000   0.3550000), wk =   0.0198020
        k(   73) = (   0.3600000   0.3600000   0.3600000), wk =   0.0198020
        k(   74) = (   0.3650000   0.3650000   0.3650000), wk =   0.0198020
        k(   75) = (   0.3700000   0.3700000   0.3700000), wk =   0.0198020
        k(   76) = (   0.3750000   0.3750000   0.3750000), wk =   0.0198020
        k(   77) = (   0.3800000   0.3800000   0.3800000), wk =   0.0198020
        k(   78) = (   0.3850000   0.3850000   0.3850000), wk =   0.0198020
        k(   79) = (   0.3900000   0.3900000   0.3900000), wk =   0.0198020
        k(   80) = (   0.3950000   0.3950000   0.3950000), wk =   0.0198020
        k(   81) = (   0.4000000   0.4000000   0.4000000), wk =   0.0198020
        k(   82) = (   0.4050000   0.4050000   0.4050000), wk =   0.0198020
        k(   83) = (   0.4100000   0.4100000   0.4100000), wk =   0.0198020
        k(   84) = (   0.4150000   0.4150000   0.4150000), wk =   0.0198020
        k(   85) = (   0.4200000   0.4200000   0.4200000), wk =   0.0198020
        k(   86) = (   0.4250000   0.4250000   0.4250000), wk =   0.0198020
        k(   87) = (   0.4300000   0.4300000   0.4300000), wk =   0.0198020
        k(   88) = (   0.4350000   0.4350000   0.4350000), wk =   0.0198020
        k(   89) = (   0.4400000   0.4400000   0.4400000), wk =   0.0198020
        k(   90) = (   0.4450000   0.4450000   0.4450000), wk =   0.0198020
        k(   91) = (   0.4500000   0.4500000   0.4500000), wk =   0.0198020
        k(   92) = (   0.4550000   0.4550000   0.4550000), wk =   0.0198020
        k(   93) = (   0.4600000   0.4600000   0.4600000), wk =   0.0198020
        k(   94) = (   0.4650000   0.4650000   0.4650000), wk =   0.0198020
        k(   95) = (   0.4700000   0.4700000   0.4700000), wk =   0.0198020
        k(   96) = (   0.4750000   0.4750000   0.4750000), wk =   0.0198020
        k(   97) = (   0.4800000   0.4800000   0.4800000), wk =   0.0198020
        k(   98) = (   0.4850000   0.4850000   0.4850000), wk =   0.0198020
        k(   99) = (   0.4900000   0.4900000   0.4900000), wk =   0.0198020
        k(  100) = (   0.4950000   0.4950000   0.4950000), wk =   0.0198020
        k(  101) = (   0.5000000   0.5000000   0.5000000), wk =   0.0198020

                       cryst. coord.
        k(    1) = (   0.0000000   0.0000000   0.0000000), wk =   0.0198020
        k(    2) = (   0.0000000   0.0050000   0.0000000), wk =   0.0198020
        k(    3) = (   0.0000000   0.0100000   0.0000000), wk =   0.0198020
        k(    4) = (   0.0000000   0.0150000   0.0000000), wk =   0.0198020
        k(    5) = (   0.0000000   0.0200000   0.0000000), wk =   0.0198020
        k(    6) = (   0.0000000   0.0250000   0.0000000), wk =   0.0198020
        k(    7) = (   0.0000000   0.0300000   0.0000000), wk =   0.0198020
        k(    8) = (   0.0000000   0.0350000   0.0000000), wk =   0.0198020
        k(    9) = (   0.0000000   0.0400000   0.0000000), wk =   0.0198020
        k(   10) = (   0.0000000   0.0450000   0.0000000), wk =   0.0198020
        k(   11) = (   0.0000000   0.0500000   0.0000000), wk =   0.0198020
        k(   12) = (   0.0000000   0.0550000   0.0000000), wk =   0.0198020
        k(   13) = (   0.0000000   0.0600000   0.0000000), wk =   0.0198020
        k(   14) = (   0.0000000   0.0650000   0.0000000), wk =   0.0198020
        k(   15) = (   0.0000000   0.0700000   0.0000000), wk =   0.0198020
        k(   16) = (   0.0000000   0.0750000   0.0000000), wk =   0.0198020
        k(   17) = (   0.0000000   0.0800000   0.0000000), wk =   0.0198020
        k(   18) = (   0.0000000   0.0850000   0.0000000), wk =   0.0198020
        k(   19) = (   0.0000000   0.0900000   0.0000000), wk =   0.0198020
        k(   20) = (   0.0000000   0.0950000   0.0000000), wk =   0.0198020
        k(   21) = (   0.0000000   0.1000000   0.0000000), wk =   0.0198020
        k(   22) = (   0.0000000   0.1050000   0.0000000), wk =   0.0198020
        k(   23) = (   0.0000000   0.1100000   0.0000000), wk =   0.0198020
        k(   24) = (   0.0000000   0.1150000   0.0000000), wk =   0.0198020
        k(   25) = (   0.0000000   0.1200000   0.0000000), wk =   0.0198020
        k(   26) = (   0.0000000   0.1250000   0.0000000), wk =   0.0198020
        k(   27) = (   0.0000000   0.1300000   0.0000000), wk =   0.0198020
        k(   28) = (   0.0000000   0.1350000   0.0000000), wk =   0.0198020
        k(   29) = (   0.0000000   0.1400000   0.0000000), wk =   0.0198020
        k(   30) = (   0.0000000   0.1450000   0.0000000), wk =   0.0198020
        k(   31) = (   0.0000000   0.1500000   0.0000000), wk =   0.0198020
        k(   32) = (   0.0000000   0.1550000   0.0000000), wk =   0.0198020
        k(   33) = (   0.0000000   0.1600000   0.0000000), wk =   0.0198020
        k(   34) = (   0.0000000   0.1650000   0.0000000), wk =   0.0198020
        k(   35) = (   0.0000000   0.1700000   0.0000000), wk =   0.0198020
        k(   36) = (   0.0000000   0.1750000   0.0000000), wk =   0.0198020
        k(   37) = (   0.0000000   0.1800000   0.0000000), wk =   0.0198020
        k(   38) = (   0.0000000   0.1850000   0.0000000), wk =   0.0198020
        k(   39) = (   0.0000000   0.1900000   0.0000000), wk =   0.0198020
        k(   40) = (   0.0000000   0.1950000   0.0000000), wk =   0.0198020
        k(   41) = (   0.0000000   0.2000000   0.0000000), wk =   0.0198020
        k(   42) = (   0.0000000   0.2050000   0.0000000), wk =   0.0198020
        k(   43) = (   0.0000000   0.2100000   0.0000000), wk =   0.0198020
        k(   44) = (   0.0000000   0.2150000   0.0000000), wk =   0.0198020
        k(   45) = (   0.0000000   0.2200000   0.0000000), wk =   0.0198020
        k(   46) = (   0.0000000   0.2250000   0.0000000), wk =   0.0198020
        k(   47) = (   0.0000000   0.2300000   0.0000000), wk =   0.0198020
        k(   48) = (   0.0000000   0.2350000   0.0000000), wk =   0.0198020
        k(   49) = (   0.0000000   0.2400000   0.0000000), wk =   0.0198020
        k(   50) = (   0.0000000   0.2450000   0.0000000), wk =   0.0198020
        k(   51) = (   0.0000000   0.2500000   0.0000000), wk =   0.0198020
        k(   52) = (   0.0000000   0.2550000   0.0000000), wk =   0.0198020
        k(   53) = (   0.0000000   0.2600000   0.0000000), wk =   0.0198020
        k(   54) = (   0.0000000   0.2650000   0.0000000), wk =   0.0198020
        k(   55) = (   0.0000000   0.2700000   0.0000000), wk =   0.0198020
        k(   56) = (   0.0000000   0.2750000   0.0000000), wk =   0.0198020
        k(   57) = (   0.0000000   0.2800000   0.0000000), wk =   0.0198020
        k(   58) = (   0.0000000   0.2850000   0.0000000), wk =   0.0198020
        k(   59) = (   0.0000000   0.2900000   0.0000000), wk =   0.0198020
        k(   60) = (   0.0000000   0.2950000   0.0000000), wk =   0.0198020
        k(   61) = (   0.0000000   0.3000000   0.0000000), wk =   0.0198020
        k(   62) = (   0.0000000   0.3050000   0.0000000), wk =   0.0198020
        k(   63) = (   0.0000000   0.3100000   0.0000000), wk =   0.0198020
        k(   64) = (   0.0000000   0.3150000   0.0000000), wk =   0.0198020
        k(   65) = (   0.0000000   0.3200000   0.0000000), wk =   0.0198020
        k(   66) = (   0.0000000   0.3250000   0.0000000), wk =   0.0198020
        k(   67) = (   0.0000000   0.3300000   0.0000000), wk =   0.0198020
        k(   68) = (   0.0000000   0.3350000   0.0000000), wk =   0.0198020
        k(   69) = (   0.0000000   0.3400000   0.0000000), wk =   0.0198020
        k(   70) = (   0.0000000   0.3450000   0.0000000), wk =   0.0198020
        k(   71) = (   0.0000000   0.3500000   0.0000000), wk =   0.0198020
        k(   72) = (   0.0000000   0.3550000   0.0000000), wk =   0.0198020
        k(   73) = (   0.0000000   0.3600000   0.0000000), wk =   0.0198020
        k(   74) = (   0.0000000   0.3650000   0.0000000), wk =   0.0198020
        k(   75) = (   0.0000000   0.3700000   0.0000000), wk =   0.0198020
        k(   76) = (   0.0000000   0.3750000   0.0000000), wk =   0.0198020
        k(   77) = (   0.0000000   0.3800000   0.0000000), wk =   0.0198020
        k(   78) = (   0.0000000   0.3850000   0.0000000), wk =   0.0198020
        k(   79) = (   0.0000000   0.3900000   0.0000000), wk =   0.0198020
        k(   80) = (   0.0000000   0.3950000   0.0000000), wk =   0.0198020
        k(   81) = (   0.0000000   0.4000000   0.0000000), wk =   0.0198020
        k(   82) = (   0.0000000   0.4050000   0.0000000), wk =   0.0198020
        k(   83) = (   0.0000000   0.4100000   0.0000000), wk =   0.0198020
        k(   84) = (   0.0000000   0.4150000   0.0000000), wk =   0.0198020
        k(   85) = (   0.0000000   0.4200000   0.0000000), wk =   0.0198020
        k(   86) = (   0.0000000   0.4250000   0.0000000), wk =   0.0198020
        k(   87) = (   0.0000000   0.4300000   0.0000000), wk =   0.0198020
        k(   88) = (   0.0000000   0.4350000   0.0000000), wk =   0.0198020
        k(   89) = (   0.0000000   0.4400000   0.0000000), wk =   0.0198020
        k(   90) = (   0.0000000   0.4450000   0.0000000), wk =   0.0198020
        k(   91) = (   0.0000000   0.4500000   0.0000000), wk =   0.0198020
        k(   92) = (   0.0000000   0.4550000   0.0000000), wk =   0.0198020
        k(   93) = (   0.0000000   0.4600000   0.0000000), wk =   0.0198020
        k(   94) = (   0.0000000   0.4650000   0.0000000), wk =   0.0198020
        k(   95) = (   0.0000000   0.4700000   0.0000000), wk =   0.0198020
        k(   96) = (   0.0000000   0.4750000   0.0000000), wk =   0.0198020
        k(   97) = (   0.0000000   0.4800000   0.0000000), wk =   0.0198020
        k(   98) = (   0.0000000   0.4850000   0.0000000), wk =   0.0198020
        k(   99) = (   0.0000000   0.4900000   0.0000000), wk =   0.0198020
        k(  100) = (   0.0000000   0.4950000   0.0000000), wk =   0.0198020
        k(  101) = (   0.0000000   0.5000000   0.0000000), wk =   0.0198020

     Dense  grid:    42087 G-vectors     FFT dimensions: (  50,  50,  50)

     Dynamical RAM for                 wfc:       1.93 MB

     Dynamical RAM for     wfc (w. buffer):       1.93 MB

     Dynamical RAM for           str. fact:       1.28 MB

     Dynamical RAM for           local pot:       0.00 MB

     Dynamical RAM for          nlocal pot:       2.09 MB

     Dynamical RAM for                qrad:       2.61 MB

     Dynamical RAM for          rho,v,vnew:       4.79 MB

     Dynamical RAM for           G-vectors:       2.73 MB

     Dynamical RAM for          h,s,v(r/c):       0.11 MB

     Dynamical RAM for          <psi|beta>:       0.01 MB

     Dynamical RAM for                 psi:       3.86 MB

     Dynamical RAM for                hpsi:       3.86 MB

     Dynamical RAM for                spsi:       3.86 MB

     Dynamical RAM for      wfcinit/wfcrot:       3.88 MB

     Dynamical RAM for           addusdens:       3.63 MB

     Estimated static dynamical RAM per process >      22.13 MB

     Estimated max dynamical RAM per process >      33.83 MB

     Estimated total dynamical RAM >       1.32 GB

     Check: negative core charge=   -0.000002

     The potential is recalculated from file :
     ./rbbr.save/charge-density

     Starting wfcs are   12 randomized atomic wfcs +   12 random wfcs
     Checking if some PAW data can be deallocated... 
       PAW data deallocated on   20 nodes for type:  1
       PAW data deallocated on   20 nodes for type:  2

     Band Structure Calculation
     Davidson diagonalization with overlap

     Computing kpt #:     1  of     3 on this pool
     total cpu time spent up to now is        4.0 secs

     Computing kpt #:     2  of     3 on this pool
     total cpu time spent up to now is        6.5 secs

     Computing kpt #:     3  of     3 on this pool
     total cpu time spent up to now is        8.6 secs

     ethr =  6.25E-13,  avg # of iterations = 41.7

     total cpu time spent up to now is        8.6 secs

     End of band structure calculation

          k = 0.0000 0.0000 0.0000 (  5209 PWs)   bands (ev):

   -23.7697 -11.3135  -7.8363  -7.8363  -7.8363   0.8030   0.8030   0.8030
     4.9969   8.0586   8.0586   8.0586   8.9003   8.9003  11.6163  16.1247
    16.1247  16.1247  16.2570  16.2570  16.2570  18.9399  18.9399  19.0139

          k = 0.0050 0.0050 0.0050 (  5209 PWs)   bands (ev):

   -23.7697 -11.3135  -7.8363  -7.8363  -7.8363   0.8027   0.8029   0.8029
     4.9975   8.0584   8.0589   8.0589   8.9006   8.9006  11.6172  16.1030
    16.1182  16.1182  16.2621  16.2621  16.2773  18.9260  18.9260  19.0124

          k = 0.0100 0.0100 0.0100 (  5209 PWs)   bands (ev):

   -23.7697 -11.3136  -7.8363  -7.8363  -7.8363   0.8018   0.8026   0.8026
     4.9993   8.0578   8.0597   8.0597   8.9016   8.9016  11.6201  16.0569
    16.1012  16.1012  16.2753  16.2753  16.3194  18.8984  18.8984  19.0077

          k = 0.0150 0.0150 0.0150 (  5209 PWs)   bands (ev):

   -23.7697 -11.3136  -7.8363  -7.8363  -7.8363   0.8004   0.8022   0.8022
     5.0022   8.0567   8.0612   8.0612   8.9033   8.9033  11.6248  16.0026
    16.0775  16.0775  16.2925  16.2925  16.3671  18.8675  18.8675  19.0000

          k = 0.0200 0.0200 0.0200 (  5209 PWs)   bands (ev):

   -23.7697 -11.3137  -7.8364  -7.8364  -7.8362   0.7983   0.8017   0.8017
     5.0064   8.0552   8.0631   8.0631   8.9057   8.9057  11.6314  15.9447
    16.0497  16.0497  16.3113  16.3113  16.4157  18.8361  18.8361  18.9892

          k = 0.0250 0.0250 0.0250 (  5209 PWs)   bands (ev):

   -23.7697 -11.3137  -7.8364  -7.8364  -7.8361   0.7957   0.8010   0.8010
     5.0117   8.0534   8.0656   8.0656   8.9087   8.9087  11.6400  15.8846
    16.0192  16.0192  16.3302  16.3302  16.4639  18.8050  18.8050  18.9756

          k = 0.0300 0.0300 0.0300 (  5209 PWs)   bands (ev):

   -23.7697 -11.3138  -7.8364  -7.8364  -7.8361   0.7926   0.8001   0.8001
     5.0182   8.0511   8.0687   8.0687   8.9124   8.9124  11.6503  15.8229
    15.9866  15.9866  16.3486  16.3486  16.5109  18.7744  18.7744  18.9593

          k = 0.0350 0.0350 0.0350 (  5206 PWs)   bands (ev):

   -23.7697 -11.3139  -7.8364  -7.8364  -7.8360   0.7889   0.7991   0.7991
     5.0259   8.0484   8.0724   8.0724   8.9168   8.9168  11.6626  15.7601
    15.9523  15.9523  16.3660  16.3660  16.5565  18.7446  18.7446  18.9403

          k = 0.0400 0.0400 0.0400 (  5212 PWs)   bands (ev):

   -23.7696 -11.3140  -7.8364  -7.8364  -7.8358   0.7846   0.7979   0.7979
     5.0347   8.0454   8.0766   8.0766   8.9219   8.9219  11.6766  15.6962
    15.9166  15.9166  16.3823  16.3823  16.6005  18.7157  18.7157  18.9188

          k = 0.0450 0.0450 0.0450 (  5203 PWs)   bands (ev):

   -23.7696 -11.3141  -7.8365  -7.8365  -7.8357   0.7798   0.7966   0.7966
     5.0447   8.0420   8.0813   8.0813   8.9276   8.9276  11.6925  15.6314
    15.8796  15.8796  16.3972  16.3972  16.6427  18.6878  18.6878  18.8950

          k = 0.0500 0.0500 0.0500 (  5212 PWs)   bands (ev):

   -23.7696 -11.3142  -7.8365  -7.8365  -7.8356   0.7745   0.7951   0.7951
     5.0557   8.0383   8.0867   8.0867   8.9340   8.9340  11.7102  15.5659
    15.8414  15.8414  16.4106  16.4106  16.6830  18.6610  18.6610  18.8691

          k = 0.0550 0.0550 0.0550 (  5212 PWs)   bands (ev):

   -23.7696 -11.3144  -7.8365  -7.8365  -7.8354   0.7686   0.7935   0.7935
     5.0679   8.0343   8.0925   8.0925   8.9410   8.9410  11.7296  15.4997
    15.8020  15.8020  16.4225  16.4225  16.7213  18.6354  18.6354  18.8412

          k = 0.0600 0.0600 0.0600 (  5206 PWs)   bands (ev):

   -23.7695 -11.3145  -7.8366  -7.8366  -7.8352   0.7623   0.7918   0.7918
     5.0813   8.0300   8.0990   8.0990   8.9487   8.9487  11.7508  15.4329
    15.7617  15.7617  16.4327  16.4327  16.7575  18.6109  18.6109  18.8116

          k = 0.0650 0.0650 0.0650 (  5206 PWs)   bands (ev):

   -23.7695 -11.3147  -7.8366  -7.8366  -7.8351   0.7554   0.7898   0.7898
     5.0956   8.0254   8.1060   8.1060   8.9571   8.9571  11.7736  15.3656
    15.7203  15.7203  16.4411  16.4411  16.7916  18.5878  18.5878  18.7805

          k = 0.0700 0.0700 0.0700 (  5206 PWs)   bands (ev):

   -23.7694 -11.3149  -7.8367  -7.8367  -7.8349   0.7481   0.7878   0.7878
     5.1111   8.0206   8.1135   8.1135   8.9661   8.9661  11.7982  15.2978
    15.6780  15.6780  16.4478  16.4478  16.8234  18.5661  18.5661  18.7480

          k = 0.0750 0.0750 0.0750 (  5209 PWs)   bands (ev):

   -23.7694 -11.3151  -7.8367  -7.8367  -7.8346   0.7403   0.7856   0.7856
     5.1276   8.0156   8.1216   8.1216   8.9758   8.9758  11.8244  15.2297
    15.6348  15.6348  16.4526  16.4526  16.8528  18.5457  18.5457  18.7143

          k = 0.0800 0.0800 0.0800 (  5209 PWs)   bands (ev):

   -23.7693 -11.3153  -7.8368  -7.8368  -7.8344   0.7321   0.7833   0.7833
     5.1452   8.0103   8.1302   8.1302   8.9861   8.9861  11.8522  15.1613
    15.5907  15.5907  16.4556  16.4556  16.8798  18.5268  18.5268  18.6798

          k = 0.0850 0.0850 0.0850 (  5203 PWs)   bands (ev):

   -23.7693 -11.3155  -7.8368  -7.8368  -7.8342   0.7234   0.7808   0.7808
     5.1637   8.0049   8.1394   8.1394   8.9971   8.9971  11.8816  15.0925
    15.5459  15.5459  16.4566  16.4566  16.9042  18.5094  18.5094  18.6446

          k = 0.0900 0.0900 0.0900 (  5197 PWs)   bands (ev):

   -23.7692 -11.3158  -7.8369  -7.8369  -7.8339   0.7144   0.7782   0.7782
     5.1833   7.9994   8.1491   8.1491   9.0087   9.0087  11.9125  15.0236
    15.5002  15.5002  16.4557  16.4557  16.9259  18.4935  18.4935  18.6089

          k = 0.0950 0.0950 0.0950 (  5209 PWs)   bands (ev):

   -23.7692 -11.3160  -7.8369  -7.8369  -7.8337   0.7049   0.7755   0.7755
     5.2038   7.9937   8.1594   8.1594   9.0209   9.0209  11.9449  14.9546
    15.4537  15.4537  16.4528  16.4528  16.9448  18.4792  18.4792  18.5732

          k = 0.1000 0.1000 0.1000 (  5221 PWs)   bands (ev):

   -23.7691 -11.3163  -7.8370  -7.8370  -7.8334   0.6950   0.7726   0.7726
     5.2253   7.9880   8.1702   8.1702   9.0338   9.0338  11.9788  14.8854
    15.4065  15.4065  16.4478  16.4478  16.9607  18.4665  18.4665  18.5375

          k = 0.1050 0.1050 0.1050 (  5222 PWs)   bands (ev):

   -23.7691 -11.3166  -7.8371  -7.8371  -7.8331   0.6848   0.7697   0.7697
     5.2477   7.9822   8.1815   8.1815   9.0473   9.0473  12.0142  14.8162
    15.3587  15.3587  16.4409  16.4409  16.9736  18.4554  18.4554  18.5022

          k = 0.1100 0.1100 0.1100 (  5222 PWs)   bands (ev):

   -23.7690 -11.3169  -7.8372  -7.8372  -7.8328   0.6742   0.7666   0.7666
     5.2710   7.9764   8.1934   8.1934   9.0614   9.0614  12.0509  14.7471
    15.3101  15.3101  16.4319  16.4319  16.9832  18.4459  18.4459  18.4676

          k = 0.1150 0.1150 0.1150 (  5222 PWs)   bands (ev):

   -23.7689 -11.3171  -7.8372  -7.8372  -7.8325   0.6633   0.7634   0.7634
     5.2952   7.9705   8.2058   8.2058   9.0761   9.0761  12.0889  14.6780
    15.2609  15.2609  16.4209  16.4209  16.9894  18.4340  18.4381  18.4381

          k = 0.1200 0.1200 0.1200 (  5216 PWs)   bands (ev):

   -23.7689 -11.3174  -7.8373  -7.8373  -7.8322   0.6521   0.7601   0.7601
     5.3203   7.9647   8.2188   8.2188   9.0915   9.0915  12.1282  14.6090
    15.2112  15.2112  16.4079  16.4079  16.9920  18.4017  18.4318  18.4318

          k = 0.1250 0.1250 0.1250 (  5222 PWs)   bands (ev):

   -23.7688 -11.3178  -7.8374  -7.8374  -7.8318   0.6407   0.7566   0.7566
     5.3462   7.9589   8.2322   8.2322   9.1074   9.1074  12.1688  14.5402
    15.1608  15.1608  16.3929  16.3929  16.9909  18.3709  18.4271  18.4271

          k = 0.1300 0.1300 0.1300 (  5234 PWs)   bands (ev):

   -23.7687 -11.3181  -7.8375  -7.8375  -7.8315   0.6289   0.7531   0.7531
     5.3729   7.9532   8.2462   8.2462   9.1239   9.1239  12.2106  14.4716
    15.1099  15.1099  16.3760  16.3760  16.9860  18.3419  18.4240  18.4240

          k = 0.1350 0.1350 0.1350 (  5234 PWs)   bands (ev):

   -23.7687 -11.3184  -7.8375  -7.8375  -7.8311   0.6169   0.7495   0.7495
     5.4004   7.9476   8.2608   8.2608   9.1410   9.1410  12.2535  14.4032
    15.0585  15.0585  16.3572  16.3572  16.9771  18.3151  18.4224  18.4224

          k = 0.1400 0.1400 0.1400 (  5240 PWs)   bands (ev):

   -23.7686 -11.3188  -7.8376  -7.8376  -7.8308   0.6046   0.7458   0.7458
     5.4287   7.9421   8.2758   8.2758   9.1587   9.1587  12.2975  14.3352
    15.0066  15.0066  16.3366  16.3366  16.9641  18.2905  18.4223  18.4223

          k = 0.1450 0.1450 0.1450 (  5252 PWs)   bands (ev):

   -23.7685 -11.3191  -7.8377  -7.8377  -7.8304   0.5921   0.7420   0.7420
     5.4577   7.9368   8.2914   8.2914   9.1770   9.1770  12.3424  14.2676
    14.9542  14.9542  16.3141  16.3141  16.9471  18.2684  18.4236  18.4236

          k = 0.1500 0.1500 0.1500 (  5252 PWs)   bands (ev):

   -23.7684 -11.3195  -7.8378  -7.8378  -7.8300   0.5795   0.7381   0.7381
     5.4874   7.9316   8.3075   8.3075   9.1959   9.1959  12.3884  14.2005
    14.9014  14.9014  16.2899  16.2899  16.9260  18.2488  18.4264  18.4264

          k = 0.1550 0.1550 0.1550 (  5252 PWs)   bands (ev):

   -23.7683 -11.3199  -7.8379  -7.8379  -7.8296   0.5666   0.7341   0.7341
     5.5178   7.9265   8.3241   8.3241   9.2153   9.2153  12.4351  14.1339
    14.8481  14.8481  16.2639  16.2639  16.9009  18.2318  18.4305  18.4305

          k = 0.1600 0.1600 0.1600 (  5258 PWs)   bands (ev):

   -23.7683 -11.3202  -7.8380  -7.8380  -7.8292   0.5536   0.7301   0.7301
     5.5488   7.9217   8.3412   8.3412   9.2352   9.2352  12.4826  14.0679
    14.7945  14.7945  16.2364  16.2364  16.8719  18.2174  18.4359  18.4359

          k = 0.1650 0.1650 0.1650 (  5258 PWs)   bands (ev):

   -23.7682 -11.3206  -7.8381  -7.8381  -7.8288   0.5404   0.7260   0.7260
     5.5805   7.9172   8.3588   8.3588   9.2557   9.2557  12.5308  14.0027
    14.7405  14.7405  16.2073  16.2073  16.8392  18.2055  18.4425  18.4425

          k = 0.1700 0.1700 0.1700 (  5258 PWs)   bands (ev):

   -23.7681 -11.3210  -7.8382  -7.8382  -7.8284   0.5271   0.7218   0.7218
     5.6128   7.9128   8.3769   8.3769   9.2767   9.2767  12.5794  13.9384
    14.6862  14.6862  16.1768  16.1768  16.8030  18.1961  18.4503  18.4503

          k = 0.1750 0.1750 0.1750 (  5258 PWs)   bands (ev):

   -23.7680 -11.3214  -7.8383  -7.8383  -7.8279   0.5137   0.7175   0.7175
     5.6456   7.9088   8.3955   8.3955   9.2983   9.2983  12.6283  13.8751
    14.6316  14.6316  16.1448  16.1448  16.7635  18.1891  18.4593  18.4593

          k = 0.1800 0.1800 0.1800 (  5264 PWs)   bands (ev):

   -23.7679 -11.3218  -7.8384  -7.8384  -7.8275   0.5002   0.7132   0.7132
     5.6790   7.9050   8.4146   8.4146   9.3203   9.3203  12.6772  13.8132
    14.5767  14.5767  16.1115  16.1115  16.7210  18.1842  18.4693  18.4693

          k = 0.1850 0.1850 0.1850 (  5264 PWs)   bands (ev):

   -23.7678 -11.3222  -7.8385  -7.8385  -7.8271   0.4866   0.7088   0.7088
     5.7130   7.9015   8.4342   8.4342   9.3429   9.3429  12.7258  13.7528
    14.5215  14.5215  16.0769  16.0769  16.6758  18.1813  18.4803  18.4803

          k = 0.1900 0.1900 0.1900 (  5264 PWs)   bands (ev):

   -23.7677 -11.3226  -7.8386  -7.8386  -7.8266   0.4729   0.7044   0.7044
     5.7474   7.8983   8.4542   8.4542   9.3659   9.3659  12.7736  13.6946
    14.4662  14.4662  16.0411  16.0411  16.6280  18.1803  18.4923  18.4923

          k = 0.1950 0.1950 0.1950 (  5258 PWs)   bands (ev):

   -23.7676 -11.3231  -7.8387  -7.8387  -7.8262   0.4592   0.6999   0.6999
     5.7823   7.8954   8.4748   8.4748   9.3895   9.3895  12.8200  13.6391
    14.4105  14.4105  16.0041  16.0041  16.5781  18.1809  18.5052  18.5052

          k = 0.2000 0.2000 0.2000 (  5258 PWs)   bands (ev):

   -23.7675 -11.3235  -7.8388  -7.8388  -7.8257   0.4455   0.6954   0.6954
     5.8177   7.8929   8.4959   8.4959   9.4135   9.4135  12.8638  13.5874
    14.3547  14.3547  15.9662  15.9662  16.5262  18.1830  18.5189  18.5189

          k = 0.2050 0.2050 0.2050 (  5258 PWs)   bands (ev):

   -23.7674 -11.3239  -7.8389  -7.8389  -7.8253   0.4317   0.6909   0.6909
     5.8534   7.8907   8.5174   8.5174   9.4380   9.4380  12.9036  13.5409
    14.2988  14.2988  15.9272  15.9272  16.4726  18.1864  18.5334  18.5334

          k = 0.2100 0.2100 0.2100 (  5270 PWs)   bands (ev):

   -23.7673 -11.3244  -7.8390  -7.8390  -7.8248   0.4179   0.6863   0.6863
     5.8896   7.8890   8.5394   8.5394   9.4629   9.4629  12.9371  13.5019
    14.2427  14.2427  15.8873  15.8873  16.4176  18.1911  18.5486  18.5486

          k = 0.2150 0.2150 0.2150 (  5264 PWs)   bands (ev):

   -23.7672 -11.3248  -7.8391  -7.8391  -7.8243   0.4042   0.6817   0.6817
     5.9261   7.8875   8.5618   8.5618   9.4882   9.4882  12.9613  13.4734
    14.1864  14.1864  15.8465  15.8465  16.3613  18.1968  18.5645  18.5645

          k = 0.2200 0.2200 0.2200 (  5264 PWs)   bands (ev):

   -23.7671 -11.3252  -7.8392  -7.8392  -7.8239   0.3904   0.6771   0.6771
     5.9629   7.8865   8.5847   8.5847   9.5140   9.5140  12.9729  13.4585
    14.1301  14.1301  15.8049  15.8049  16.3041  18.2035  18.5811  18.5811

          k = 0.2250 0.2250 0.2250 (  5264 PWs)   bands (ev):

   -23.7671 -11.3257  -7.8393  -7.8393  -7.8234   0.3767   0.6725   0.6725
     6.0000   7.8859   8.6081   8.6081   9.5401   9.5401  12.9698  13.4594
    14.0737  14.0737  15.7626  15.7626  16.2461  18.2110  18.5982  18.5982

          k = 0.2300 0.2300 0.2300 (  5264 PWs)   bands (ev):

   -23.7670 -11.3261  -7.8395  -7.8395  -7.8229   0.3630   0.6678   0.6678
     6.0373   7.8857   8.6320   8.6320   9.5667   9.5667  12.9524  13.4757
    14.0172  14.0172  15.7196  15.7196  16.1875  18.2192  18.6159  18.6159

          k = 0.2350 0.2350 0.2350 (  5264 PWs)   bands (ev):

   -23.7669 -11.3266  -7.8396  -7.8396  -7.8225   0.3494   0.6632   0.6632
     6.0749   7.8859   8.6562   8.6562   9.5936   9.5936  12.9232  13.5047
    13.9607  13.9607  15.6760  15.6760  16.1285  18.2282  18.6342  18.6342

          k = 0.2400 0.2400 0.2400 (  5264 PWs)   bands (ev):

   -23.7668 -11.3270  -7.8397  -7.8397  -7.8220   0.3359   0.6585   0.6585
     6.1127   7.8865   8.6810   8.6810   9.6209   9.6209  12.8857  13.5428
    13.9042  13.9042  15.6318  15.6318  16.0694  18.2377  18.6528  18.6528

          k = 0.2450 0.2450 0.2450 (  5264 PWs)   bands (ev):

   -23.7666 -11.3275  -7.8398  -7.8398  -7.8215   0.3224   0.6539   0.6539
     6.1507   7.8876   8.7061   8.7061   9.6486   9.6486  12.8425  13.5874
    13.8477  13.8477  15.5871  15.5871  16.0104  18.2477  18.6719  18.6719

          k = 0.2500 0.2500 0.2500 (  5270 PWs)   bands (ev):

   -23.7665 -11.3279  -7.8399  -7.8399  -7.8210   0.3090   0.6492   0.6492
     6.1888   7.8891   8.7317   8.7317   9.6766   9.6766  12.7958  13.6362
    13.7912  13.7912  15.5419  15.5419  15.9516  18.2581  18.6914  18.6914

          k = 0.2550 0.2550 0.2550 (  5270 PWs)   bands (ev):

   -23.7664 -11.3284  -7.8400  -7.8400  -7.8205   0.2958   0.6446   0.6446
     6.2269   7.8910   8.7577   8.7577   9.7049   9.7049  12.7468  13.6877
    13.7348  13.7348  15.4964  15.4964  15.8934  18.2690  18.7113  18.7113

          k = 0.2600 0.2600 0.2600 (  5270 PWs)   bands (ev):

   -23.7663 -11.3288  -7.8401  -7.8401  -7.8201   0.2826   0.6400   0.6400
     6.2652   7.8934   8.7841   8.7841   9.7334   9.7334  12.6964  13.6784
    13.6784  13.7410  15.4504  15.4504  15.8359  18.2802  18.7314  18.7314

          k = 0.2650 0.2650 0.2650 (  5273 PWs)   bands (ev):

   -23.7662 -11.3293  -7.8402  -7.8402  -7.8196   0.2696   0.6354   0.6354
     6.3035   7.8963   8.8110   8.8110   9.7623   9.7623  12.6453  13.6222
    13.6222  13.7951  15.4042  15.4042  15.7794  18.2918  18.7519  18.7519

          k = 0.2700 0.2700 0.2700 (  5279 PWs)   bands (ev):

   -23.7661 -11.3297  -7.8404  -7.8404  -7.8191   0.2567   0.6308   0.6308
     6.3417   7.8996   8.8382   8.8382   9.7914   9.7914  12.5939  13.5660
    13.5660  13.8495  15.3577  15.3577  15.7244  18.3036  18.7725  18.7725

          k = 0.2750 0.2750 0.2750 (  5279 PWs)   bands (ev):

   -23.7661 -11.3301  -7.8405  -7.8405  -7.8186   0.2440   0.6262   0.6262
     6.3799   7.9034   8.8659   8.8659   9.8207   9.8207  12.5424  13.5100
    13.5100  13.9035  15.3110  15.3110  15.6711  18.3156  18.7934  18.7934

          k = 0.2800 0.2800 0.2800 (  5279 PWs)   bands (ev):

   -23.7660 -11.3306  -7.8406  -7.8406  -7.8182   0.2314   0.6217   0.6217
     6.4180   7.9076   8.8939   8.8939   9.8503   9.8503  12.4911  13.4542
    13.4542  13.9567  15.2641  15.2641  15.6199  18.3279  18.8145  18.8145

          k = 0.2850 0.2850 0.2850 (  5279 PWs)   bands (ev):

   -23.7659 -11.3310  -7.8407  -7.8407  -7.8177   0.2190   0.6173   0.6173
     6.4560   7.9123   8.9223   8.9223   9.8800   9.8800  12.4401  13.3985
    13.3985  14.0082  15.2170  15.2170  15.5715  18.3403  18.8357  18.8357

          k = 0.2900 0.2900 0.2900 (  5279 PWs)   bands (ev):

   -23.7658 -11.3315  -7.8408  -7.8408  -7.8173   0.2068   0.6128   0.6128
     6.4939   7.9175   8.9511   8.9511   9.9099   9.9099  12.3895  13.3430
    13.3430  14.0575  15.1699  15.1699  15.5263  18.3529  18.8570  18.8570

          k = 0.2950 0.2950 0.2950 (  5288 PWs)   bands (ev):

   -23.7657 -11.3319  -7.8409  -7.8409  -7.8168   0.1947   0.6084   0.6084
     6.5315   7.9231   8.9802   8.9802   9.9399   9.9399  12.3395  13.2877
    13.2877  14.1039  15.1228  15.1228  15.4852  18.3656  18.8784  18.8784

          k = 0.3000 0.3000 0.3000 (  5288 PWs)   bands (ev):

   -23.7656 -11.3323  -7.8410  -7.8410  -7.8163   0.1828   0.6041   0.6041
     6.5689   7.9292   9.0097   9.0097   9.9701   9.9701  12.2902  13.2328
    13.2328  14.1464  15.0756  15.0756  15.4490  18.3784  18.8998  18.8998

          k = 0.3050 0.3050 0.3050 (  5288 PWs)   bands (ev):

   -23.7655 -11.3327  -7.8411  -7.8411  -7.8159   0.1712   0.5998   0.5998
     6.6060   7.9357   9.0395   9.0395  10.0003  10.0003  12.2415  13.1780
    13.1780  14.1841  15.0286  15.0286  15.4185  18.3913  18.9213  18.9213

          k = 0.3100 0.3100 0.3100 (  5288 PWs)   bands (ev):

   -23.7654 -11.3332  -7.8412  -7.8412  -7.8154   0.1597   0.5956   0.5956
     6.6428   7.9427   9.0697   9.0697  10.0306  10.0306  12.1936  13.1236
    13.1236  14.2160  14.9816  14.9816  15.3948  18.4042  18.9427  18.9427

          k = 0.3150 0.3150 0.3150 (  5288 PWs)   bands (ev):

   -23.7653 -11.3336  -7.8413  -7.8413  -7.8150   0.1484   0.5914   0.5914
     6.6792   7.9502   9.1002   9.1002  10.0609  10.0609  12.1465  13.0695
    13.0695  14.2411  14.9347  14.9347  15.3788  18.4172  18.9641  18.9641

          k = 0.3200 0.3200 0.3200 (  5294 PWs)   bands (ev):

   -23.7652 -11.3340  -7.8414  -7.8414  -7.8146   0.1374   0.5873   0.5873
     6.7152   7.9580   9.1309   9.1309  10.0911  10.0911  12.1003  13.0158
    13.0158  14.2587  14.8881  14.8881  15.3713  18.4302  18.9854  18.9854

          k = 0.3250 0.3250 0.3250 (  5294 PWs)   bands (ev):

   -23.7651 -11.3344  -7.8415  -7.8415  -7.8141   0.1266   0.5832   0.5832
     6.7507   7.9663   9.1620   9.1620  10.1214  10.1214  12.0550  12.9624
    12.9624  14.2682  14.8416  14.8416  15.3730  18.4433  19.0066  19.0066

          k = 0.3300 0.3300 0.3300 (  5297 PWs)   bands (ev):

   -23.7650 -11.3348  -7.8416  -7.8416  -7.8137   0.1160   0.5793   0.5793
     6.7857   7.9750   9.1933   9.1933  10.1515  10.1515  12.0107  12.9095
    12.9095  14.2694  14.7954  14.7954  15.3837  18.4563  19.0276  19.0276

          k = 0.3350 0.3350 0.3350 (  5303 PWs)   bands (ev):

   -23.7649 -11.3352  -7.8417  -7.8417  -7.8133   0.1057   0.5754   0.5754
     6.8202   7.9841   9.2249   9.2249  10.1815  10.1815  11.9673  12.8570
    12.8570  14.2627  14.7496  14.7496  15.4034  18.4693  19.0485  19.0485

          k = 0.3400 0.3400 0.3400 (  5294 PWs)   bands (ev):

   -23.7648 -11.3355  -7.8418  -7.8418  -7.8129   0.0956   0.5716   0.5716
     6.8541   7.9936   9.2568   9.2568  10.2113  10.2113  11.9249  12.8050
    12.8050  14.2487  14.7041  14.7041  15.4312  18.4822  19.0692  19.0692

          k = 0.3450 0.3450 0.3450 (  5288 PWs)   bands (ev):

   -23.7648 -11.3359  -7.8419  -7.8419  -7.8125   0.0858   0.5679   0.5679
     6.8874   8.0035   9.2888   9.2888  10.2409  10.2409  11.8836  12.7536
    12.7536  14.2284  14.6591  14.6591  15.4663  18.4951  19.0896  19.0896

          k = 0.3500 0.3500 0.3500 (  5288 PWs)   bands (ev):

   -23.7647 -11.3363  -7.8420  -7.8420  -7.8121   0.0762   0.5642   0.5642
     6.9199   8.0137   9.3211   9.3211  10.2702  10.2702  11.8433  12.7027
    12.7027  14.2028  14.6145  14.6145  15.5077  18.5079  19.1098  19.1098

          k = 0.3550 0.3550 0.3550 (  5282 PWs)   bands (ev):

   -23.7646 -11.3366  -7.8421  -7.8421  -7.8117   0.0669   0.5607   0.5607
     6.9518   8.0242   9.3535   9.3535  10.2992  10.2992  11.8042  12.6524
    12.6524  14.1728  14.5704  14.5704  15.5542  18.5207  19.1297  19.1297

          k = 0.3600 0.3600 0.3600 (  5282 PWs)   bands (ev):

   -23.7645 -11.3370  -7.8422  -7.8422  -7.8114   0.0578   0.5572   0.5572
     6.9829   8.0351   9.3860   9.3860  10.3279  10.3279  11.7662  12.6027
    12.6027  14.1395  14.5268  14.5268  15.6050  18.5333  19.1493  19.1493

          k = 0.3650 0.3650 0.3650 (  5282 PWs)   bands (ev):

   -23.7644 -11.3373  -7.8422  -7.8422  -7.8110   0.0491   0.5538   0.5538
     7.0132   8.0461   9.4187   9.4187  10.3561  10.3561  11.7294  12.5538
    12.5538  14.1036  14.4839  14.4839  15.6593  18.5458  19.1685  19.1685

          k = 0.3700 0.3700 0.3700 (  5279 PWs)   bands (ev):

   -23.7644 -11.3376  -7.8423  -7.8423  -7.8107   0.0406   0.5506   0.5506
     7.0427   8.0575   9.4515   9.4515  10.3838  10.3838  11.6937  12.5056
    12.5056  14.0658  14.4417  14.4417  15.7162  18.5583  19.1873  19.1873

          k = 0.3750 0.3750 0.3750 (  5285 PWs)   bands (ev):

   -23.7643 -11.3380  -7.8424  -7.8424  -7.8103   0.0324   0.5474   0.5474
     7.0713   8.0690   9.4843   9.4843  10.4109  10.4109  11.6593  12.4582
    12.4582  14.0267  14.4002  14.4002  15.7752  18.5705  19.2057  19.2057

          k = 0.3800 0.3800 0.3800 (  5285 PWs)   bands (ev):

   -23.7642 -11.3383  -7.8425  -7.8425  -7.8100   0.0245   0.5443   0.5443
     7.0990   8.0807   9.5172   9.5172  10.4374  10.4374  11.6261  12.4116
    12.4116  13.9869  14.3594  14.3594  15.8358  18.5827  19.2237  19.2237

          k = 0.3850 0.3850 0.3850 (  5282 PWs)   bands (ev):

   -23.7641 -11.3386  -7.8426  -7.8426  -7.8097   0.0168   0.5414   0.5414
     7.1258   8.0925   9.5500   9.5500  10.4633  10.4633  11.5941  12.3660
    12.3660  13.9466  14.3196  14.3196  15.8974  18.5947  19.2412  19.2412

          k = 0.3900 0.3900 0.3900 (  5276 PWs)   bands (ev):

   -23.7641 -11.3388  -7.8426  -7.8426  -7.8094   0.0095   0.5385   0.5385
     7.1516   8.1043   9.5828   9.5828  10.4883  10.4883  11.5635  12.3214
    12.3214  13.9063  14.2806  14.2806  15.9597  18.6065  19.2582  19.2582

          k = 0.3950 0.3950 0.3950 (  5270 PWs)   bands (ev):

   -23.7640 -11.3391  -7.8427  -7.8427  -7.8091   0.0025   0.5358   0.5358
     7.1764   8.1162   9.6154   9.6154  10.5125  10.5125  11.5341  12.2779
    12.2779  13.8663  14.2426  14.2426  16.0223  18.6181  19.2747  19.2747

          k = 0.4000 0.4000 0.4000 (  5264 PWs)   bands (ev):

   -23.7640 -11.3394  -7.8428  -7.8428  -7.8088  -0.0043   0.5331   0.5331
     7.2001   8.1281   9.6479   9.6479  10.5357  10.5357  11.5061  12.2356
    12.2356  13.8269  14.2057  14.2057  16.0849  18.6296  19.2906  19.2906

          k = 0.4050 0.4050 0.4050 (  5276 PWs)   bands (ev):

   -23.7639 -11.3396  -7.8428  -7.8428  -7.8085  -0.0107   0.5306   0.5306
     7.2228   8.1399   9.6801   9.6801  10.5579  10.5579  11.4793  12.1945
    12.1945  13.7882  14.1698  14.1698  16.1471  18.6408  19.3059  19.3059

          k = 0.4100 0.4100 0.4100 (  5282 PWs)   bands (ev):

   -23.7638 -11.3399  -7.8429  -7.8429  -7.8083  -0.0168   0.5282   0.5282
     7.2445   8.1515   9.7120   9.7120  10.5790  10.5790  11.4540  12.1547
    12.1547  13.7504  14.1352  14.1352  16.2088  18.6518  19.3207  19.3207

          k = 0.4150 0.4150 0.4150 (  5276 PWs)   bands (ev):

   -23.7638 -11.3401  -7.8429  -7.8429  -7.8080  -0.0226   0.5259   0.5259
     7.2650   8.1630   9.7435   9.7435  10.5989  10.5989  11.4300  12.1164
    12.1164  13.7138  14.1018  14.1018  16.2695  18.6626  19.3348  19.3348

          k = 0.4200 0.4200 0.4200 (  5276 PWs)   bands (ev):

   -23.7637 -11.3403  -7.8430  -7.8430  -7.8078  -0.0281   0.5238   0.5238
     7.2845   8.1742   9.7746   9.7746  10.6176  10.6176  11.4073  12.0796
    12.0796  13.6784  14.0697  14.0697  16.3290  18.6731  19.3482  19.3482

          k = 0.4250 0.4250 0.4250 (  5276 PWs)   bands (ev):

   -23.7637 -11.3405  -7.8430  -7.8430  -7.8076  -0.0332   0.5217   0.5217
     7.3028   8.1851   9.8050   9.8050  10.6349  10.6349  11.3861  12.0445
    12.0445  13.6445  14.0390  14.0390  16.3870  18.6834  19.3610  19.3610

          k = 0.4300 0.4300 0.4300 (  5276 PWs)   bands (ev):

   -23.7637 -11.3407  -7.8431  -7.8431  -7.8074  -0.0381   0.5198   0.5198
     7.3200   8.1956   9.8348   9.8348  10.6508  10.6508  11.3662  12.0111
    12.0111  13.6121  14.0098  14.0098  16.4432  18.6934  19.3730  19.3730

          k = 0.4350 0.4350 0.4350 (  5270 PWs)   bands (ev):

   -23.7636 -11.3409  -7.8431  -7.8431  -7.8072  -0.0426   0.5180   0.5180
     7.3361   8.2057   9.8638   9.8638  10.6652  10.6652  11.3477  11.9795
    11.9795  13.5815  13.9822  13.9822  16.4974  18.7030  19.3844  19.3844

          k = 0.4400 0.4400 0.4400 (  5270 PWs)   bands (ev):

   -23.7636 -11.3411  -7.8432  -7.8432  -7.8070  -0.0468   0.5163   0.5163
     7.3510   8.2153   9.8918   9.8918  10.6781  10.6781  11.3306  11.9500
    11.9500  13.5526  13.9562  13.9562  16.5493  18.7123  19.3950  19.3950

          k = 0.4450 0.4450 0.4450 (  5270 PWs)   bands (ev):

   -23.7635 -11.3412  -7.8432  -7.8432  -7.8068  -0.0507   0.5148   0.5148
     7.3647   8.2244   9.9187   9.9187  10.6895  10.6895  11.3149  11.9225
    11.9225  13.5256  13.9320  13.9320  16.5985  18.7212  19.4048  19.4048

          k = 0.4500 0.4500 0.4500 (  5270 PWs)   bands (ev):

   -23.7635 -11.3414  -7.8433  -7.8433  -7.8067  -0.0542   0.5134   0.5134
     7.3773   8.2329   9.9443   9.9443  10.6994  10.6994  11.3005  11.8971
    11.8971  13.5007  13.9095  13.9095  16.6447  18.7296  19.4138  19.4138

          k = 0.4550 0.4550 0.4550 (  5270 PWs)   bands (ev):

   -23.7635 -11.3415  -7.8433  -7.8433  -7.8065  -0.0574   0.5121   0.5121
     7.3887   8.2407   9.9685   9.9685  10.7078  10.7078  11.2876  11.8740
    11.8740  13.4778  13.8889  13.8889  16.6877  18.7375  19.4220  19.4220

          k = 0.4600 0.4600 0.4600 (  5270 PWs)   bands (ev):

   -23.7634 -11.3416  -7.8433  -7.8433  -7.8064  -0.0603   0.5110   0.5110
     7.3989   8.2479   9.9909   9.9909  10.7148  10.7148  11.2760  11.8532
    11.8532  13.4571  13.8703  13.8703  16.7272  18.7449  19.4294  19.4294

          k = 0.4650 0.4650 0.4650 (  5258 PWs)   bands (ev):

   -23.7634 -11.3417  -7.8433  -7.8433  -7.8063  -0.0628   0.5100   0.5100
     7.4079   8.2543  10.0115  10.0115  10.7204  10.7204  11.2658  11.8348
    11.8348  13.4387  13.8536  13.8536  16.7628  18.7517  19.4360  19.4360

          k = 0.4700 0.4700 0.4700 (  5258 PWs)   bands (ev):

   -23.7634 -11.3418  -7.8434  -7.8434  -7.8062  -0.0650   0.5091   0.5091
     7.4157   8.2600  10.0300  10.0300  10.7248  10.7248  11.2570  11.8188
    11.8188  13.4226  13.8391  13.8391  16.7944  18.7577  19.4417  19.4417

          k = 0.4750 0.4750 0.4750 (  5252 PWs)   bands (ev):

   -23.7634 -11.3419  -7.8434  -7.8434  -7.8061  -0.0669   0.5084   0.5084
     7.4223   8.2648  10.0462  10.0462  10.7282  10.7282  11.2496  11.8052
    11.8052  13.4089  13.8267  13.8267  16.8215  18.7630  19.4466  19.4466

          k = 0.4800 0.4800 0.4800 (  5258 PWs)   bands (ev):

   -23.7634 -11.3420  -7.8434  -7.8434  -7.8060  -0.0684   0.5077   0.5077
     7.4277   8.2688  10.0598  10.0598  10.7306  10.7306  11.2435  11.7941
    11.7941  13.3976  13.8164  13.8164  16.8441  18.7675  19.4506  19.4506

          k = 0.4850 0.4850 0.4850 (  5252 PWs)   bands (ev):

   -23.7634 -11.3420  -7.8434  -7.8434  -7.8060  -0.0696   0.5073   0.5073
     7.4319   8.2719  10.0706  10.0706  10.7323  10.7323  11.2388  11.7854
    11.7854  13.3887  13.8084  13.8084  16.8619  18.7710  19.4537  19.4537

          k = 0.4900 0.4900 0.4900 (  5252 PWs)   bands (ev):

   -23.7634 -11.3420  -7.8434  -7.8434  -7.8060  -0.0704   0.5069   0.5069
     7.4350   8.2742  10.0785  10.0785  10.7334  10.7334  11.2354  11.7792
    11.7792  13.3824  13.8027  13.8027  16.8747  18.7736  19.4559  19.4559

          k = 0.4950 0.4950 0.4950 (  5252 PWs)   bands (ev):

   -23.7633 -11.3421  -7.8434  -7.8434  -7.8059  -0.0709   0.5067   0.5067
     7.4368   8.2756  10.0833  10.0833  10.7340  10.7340  11.2334  11.7755
    11.7755  13.3786  13.7992  13.7992  16.8824  18.7752  19.4573  19.4573

          k = 0.5000 0.5000 0.5000 (  5252 PWs)   bands (ev):

   -23.7633 -11.3421  -7.8434  -7.8434  -7.8059  -0.0711   0.5067   0.5067
     7.4374   8.2760  10.0849  10.0849  10.7342  10.7342  11.2327  11.7743
    11.7743  13.3773  13.7981  13.7981  16.8850  18.7757  19.4577  19.4577

     Writing output data file ./rbbr.save/
 
     init_run     :      0.50s CPU      0.64s WALL (       1 calls)
     electrons    :      6.65s CPU      6.81s WALL (       1 calls)

     Called by init_run:
     wfcinit      :      0.00s CPU      0.02s WALL (       1 calls)
     wfcinit:atom :      0.00s CPU      0.00s WALL (       3 calls)
     wfcinit:wfcr :      0.17s CPU      0.18s WALL (       3 calls)
     potinit      :      0.11s CPU      0.18s WALL (       1 calls)
     hinit0       :      0.35s CPU      0.40s WALL (       1 calls)

     Called by electrons:
     c_bands      :      6.65s CPU      6.81s WALL (       1 calls)
     v_of_rho     :      0.05s CPU      0.07s WALL (       1 calls)
     v_h          :      0.00s CPU      0.00s WALL (       1 calls)
     v_xc         :      0.05s CPU      0.07s WALL (       1 calls)
     newd         :      0.00s CPU      0.01s WALL (       1 calls)
     PAW_pot      :      0.04s CPU      0.04s WALL (       1 calls)

     Called by c_bands:
     init_us_2    :      0.01s CPU      0.01s WALL (       3 calls)
     cegterg      :      6.00s CPU      6.13s WALL (      10 calls)

     Called by sum_band:

     Called by *egterg:
     cdiaghg      :      0.12s CPU      0.13s WALL (     184 calls)
     cegterg:over :      0.30s CPU      0.31s WALL (     181 calls)
     cegterg:upda :      0.26s CPU      0.26s WALL (     181 calls)
     cegterg:last :      0.57s CPU      0.58s WALL (     100 calls)
     h_psi        :      4.64s CPU      4.73s WALL (     194 calls)
     s_psi        :      0.14s CPU      0.15s WALL (     194 calls)
     g_psi        :      0.03s CPU      0.03s WALL (     181 calls)

     Called by h_psi:
     h_psi:calbec :      0.11s CPU      0.11s WALL (     194 calls)
     vloc_psi     :      4.34s CPU      4.41s WALL (     194 calls)
     add_vuspsi   :      0.16s CPU      0.16s WALL (     194 calls)

     General routines
     calbec       :      0.11s CPU      0.11s WALL (     194 calls)
     fft          :      0.01s CPU      0.05s WALL (      12 calls)
     fftw         :      3.51s CPU      3.57s WALL (    4422 calls)
     davcio       :      0.00s CPU      0.03s WALL (       6 calls)
 
     Parallel routines

     PAW routines
     PAW_pot      :      0.04s CPU      0.04s WALL (       1 calls)
 
     PWSCF        :      8.23s CPU      8.91s WALL

 
   This run was terminated on:  12: 7: 5  23Jun2022            

=------------------------------------------------------------------------------=
   JOB DONE.
=------------------------------------------------------------------------------=
