
     Program PWSCF v.6.6 starts on 23Jun2022 at 12: 6:21 

     This program is part of the open-source Quantum ESPRESSO suite
     for quantum simulation of materials; please cite
         "P. Giannozzi et al., J. Phys.:Condens. Matter 21 395502 (2009);
         "P. Giannozzi et al., J. Phys.:Condens. Matter 29 465901 (2017);
          URL http://www.quantum-espresso.org", 
     in publications or presentations arising from this work. More details at
     http://www.quantum-espresso.org/quote

     Parallel version (MPI), running on    40 processors

     MPI processes distributed on     1 nodes
     K-points division:     npool     =      40
     Fft bands division:     nmany     =       1
     Waiting for input...
     Reading input from standard input
Warning: card &IONS ignored
Warning: card / ignored
Warning: card &CELL ignored
Warning: card PRESS_CONV_THR=0.1 ignored
Warning: card / ignored

     Current dimensions of program PWSCF are:
     Max number of different atomic species (ntypx) = 10
     Max number of k-points (npk) =  40000
     Max angular momentum in pseudopotentials (lmaxx) =  3

     Atomic positions and unit cell read from directory:
     ./rbbr.save/
     Atomic positions from file used, from input discarded
 
     file Rb.pbe-spn-kjpaw_psl.1.0.0.UPF: wavefunction(s)  4S renormalized
     file Br.pbe-n-kjpaw_psl.1.0.0.UPF: wavefunction(s)  4S 4P renormalized

     Subspace diagonalization in iterative solution of the eigenvalue problem:
     a serial algorithm will be used

 
     G-vector sticks info
     --------------------
     sticks:   dense  smooth     PW     G-vecs:    dense   smooth      PW
     Sum        1597    1597    475                42087    42087    6735
 


     bravais-lattice index     =            2
     lattice parameter (alat)  =      13.2560  a.u.
     unit-cell volume          =     582.3356 (a.u.)^3
     number of atoms/cell      =            2
     number of atomic types    =            2
     number of electrons       =        16.00
     number of Kohn-Sham states=           24
     kinetic-energy cutoff     =      66.0000  Ry
     charge density cutoff     =     264.0000  Ry
     Exchange-correlation= SLA PW PBX PBC
                           (   1   4   3   4   0   0   0)

     celldm(1)=  13.255958  celldm(2)=   0.000000  celldm(3)=   0.000000
     celldm(4)=   0.000000  celldm(5)=   0.000000  celldm(6)=   0.000000

     crystal axes: (cart. coord. in units of alat)
               a(1) = (  -0.500000   0.000000   0.500000 )  
               a(2) = (   0.000000   0.500000   0.500000 )  
               a(3) = (  -0.500000   0.500000   0.000000 )  

     reciprocal axes: (cart. coord. in units 2 pi/alat)
               b(1) = ( -1.000000 -1.000000  1.000000 )  
               b(2) = (  1.000000  1.000000  1.000000 )  
               b(3) = ( -1.000000  1.000000 -1.000000 )  


     PseudoPot. # 1 for Rb read from file:
     /scratch1/fanchem/RbBr/pp/Rb.pbe-spn-kjpaw_psl.1.0.0.UPF
     MD5 check sum: a11e6fb9d11e64d6427b9eb26aa4a0b1
     Pseudo is Projector augmented-wave + core cor, Zval =  9.0
     Generated using "atomic" code by A. Dal Corso v.6.2.2
     Shape of augmentation charge: PSQ
     Using radial grid of 1219 points,  6 beta functions with: 
                l(1) =   0
                l(2) =   0
                l(3) =   1
                l(4) =   1
                l(5) =   2
                l(6) =   2
     Q(r) pseudized with 0 coefficients 


     PseudoPot. # 2 for Br read from file:
     /scratch1/fanchem/RbBr/pp/Br.pbe-n-kjpaw_psl.1.0.0.UPF
     MD5 check sum: b00de77caabc69c0a6b76eb37264f235
     Pseudo is Projector augmented-wave + core cor, Zval =  7.0
     Generated using "atomic" code by A. Dal Corso v.6.3
     Shape of augmentation charge: PSQ
     Using radial grid of 1213 points,  4 beta functions with: 
                l(1) =   0
                l(2) =   0
                l(3) =   1
                l(4) =   1
     Q(r) pseudized with 0 coefficients 


     atomic species   valence    mass     pseudopotential
        Rb             9.00    85.46780     Rb( 1.00)
        Br             7.00    79.90400     Br( 1.00)

     48 Sym. Ops., with inversion, found


                                    s                        frac. trans.

      isym =  1     identity                                     

 cryst.   s( 1) = (     1          0          0      )
                  (     0          1          0      )
                  (     0          0          1      )

 cart.    s( 1) = (  1.0000000  0.0000000  0.0000000 )
                  (  0.0000000  1.0000000  0.0000000 )
                  (  0.0000000  0.0000000  1.0000000 )


      isym =  2     180 deg rotation - cart. axis [0,0,1]        

 cryst.   s( 2) = (     0          1         -1      )
                  (     1          0         -1      )
                  (     0          0         -1      )

 cart.    s( 2) = ( -1.0000000  0.0000000  0.0000000 )
                  (  0.0000000 -1.0000000  0.0000000 )
                  (  0.0000000  0.0000000  1.0000000 )


      isym =  3     180 deg rotation - cart. axis [0,1,0]        

 cryst.   s( 3) = (    -1          0          0      )
                  (    -1          0          1      )
                  (    -1          1          0      )

 cart.    s( 3) = ( -1.0000000  0.0000000  0.0000000 )
                  (  0.0000000  1.0000000  0.0000000 )
                  (  0.0000000  0.0000000 -1.0000000 )


      isym =  4     180 deg rotation - cart. axis [1,0,0]        

 cryst.   s( 4) = (     0         -1          1      )
                  (     0         -1          0      )
                  (     1         -1          0      )

 cart.    s( 4) = (  1.0000000  0.0000000  0.0000000 )
                  (  0.0000000 -1.0000000  0.0000000 )
                  (  0.0000000  0.0000000 -1.0000000 )


      isym =  5     180 deg rotation - cart. axis [1,1,0]        

 cryst.   s( 5) = (     0         -1          0      )
                  (    -1          0          0      )
                  (     0          0         -1      )

 cart.    s( 5) = (  0.0000000  1.0000000  0.0000000 )
                  (  1.0000000  0.0000000  0.0000000 )
                  (  0.0000000  0.0000000 -1.0000000 )


      isym =  6     180 deg rotation - cart. axis [1,-1,0]       

 cryst.   s( 6) = (    -1          0          1      )
                  (     0         -1          1      )
                  (     0          0          1      )

 cart.    s( 6) = (  0.0000000 -1.0000000  0.0000000 )
                  ( -1.0000000  0.0000000  0.0000000 )
                  (  0.0000000  0.0000000 -1.0000000 )


      isym =  7      90 deg rotation - cart. axis [0,0,-1]       

 cryst.   s( 7) = (     0          1          0      )
                  (     0          1         -1      )
                  (    -1          1          0      )

 cart.    s( 7) = (  0.0000000  1.0000000  0.0000000 )
                  ( -1.0000000  0.0000000  0.0000000 )
                  (  0.0000000  0.0000000  1.0000000 )


      isym =  8      90 deg rotation - cart. axis [0,0,1]        

 cryst.   s( 8) = (     1          0         -1      )
                  (     1          0          0      )
                  (     1         -1          0      )

 cart.    s( 8) = (  0.0000000 -1.0000000  0.0000000 )
                  (  1.0000000  0.0000000  0.0000000 )
                  (  0.0000000  0.0000000  1.0000000 )


      isym =  9     180 deg rotation - cart. axis [1,0,1]        

 cryst.   s( 9) = (    -1          0          0      )
                  (     0          0         -1      )
                  (     0         -1          0      )

 cart.    s( 9) = (  0.0000000  0.0000000  1.0000000 )
                  (  0.0000000 -1.0000000  0.0000000 )
                  (  1.0000000  0.0000000  0.0000000 )


      isym = 10     180 deg rotation - cart. axis [-1,0,1]       

 cryst.   s(10) = (     1          0          0      )
                  (     1         -1          0      )
                  (     1          0         -1      )

 cart.    s(10) = (  0.0000000  0.0000000 -1.0000000 )
                  (  0.0000000 -1.0000000  0.0000000 )
                  ( -1.0000000  0.0000000  0.0000000 )


      isym = 11      90 deg rotation - cart. axis [0,1,0]        

 cryst.   s(11) = (     0          1         -1      )
                  (    -1          1          0      )
                  (     0          1          0      )

 cart.    s(11) = (  0.0000000  0.0000000  1.0000000 )
                  (  0.0000000  1.0000000  0.0000000 )
                  ( -1.0000000  0.0000000  0.0000000 )


      isym = 12      90 deg rotation - cart. axis [0,-1,0]       

 cryst.   s(12) = (     0         -1          1      )
                  (     0          0          1      )
                  (    -1          0          1      )

 cart.    s(12) = (  0.0000000  0.0000000 -1.0000000 )
                  (  0.0000000  1.0000000  0.0000000 )
                  (  1.0000000  0.0000000  0.0000000 )


      isym = 13     180 deg rotation - cart. axis [0,1,1]        

 cryst.   s(13) = (    -1          1          0      )
                  (     0          1          0      )
                  (     0          1         -1      )

 cart.    s(13) = ( -1.0000000  0.0000000  0.0000000 )
                  (  0.0000000  0.0000000  1.0000000 )
                  (  0.0000000  1.0000000  0.0000000 )


      isym = 14     180 deg rotation - cart. axis [0,1,-1]       

 cryst.   s(14) = (     0          0         -1      )
                  (     0         -1          0      )
                  (    -1          0          0      )

 cart.    s(14) = ( -1.0000000  0.0000000  0.0000000 )
                  (  0.0000000  0.0000000 -1.0000000 )
                  (  0.0000000 -1.0000000  0.0000000 )


      isym = 15      90 deg rotation - cart. axis [-1,0,0]       

 cryst.   s(15) = (     0          0          1      )
                  (    -1          0          1      )
                  (     0         -1          1      )

 cart.    s(15) = (  1.0000000  0.0000000  0.0000000 )
                  (  0.0000000  0.0000000  1.0000000 )
                  (  0.0000000 -1.0000000  0.0000000 )


      isym = 16      90 deg rotation - cart. axis [1,0,0]        

 cryst.   s(16) = (     1         -1          0      )
                  (     1          0         -1      )
                  (     1          0          0      )

 cart.    s(16) = (  1.0000000  0.0000000  0.0000000 )
                  (  0.0000000  0.0000000 -1.0000000 )
                  (  0.0000000  1.0000000  0.0000000 )


      isym = 17     120 deg rotation - cart. axis [-1,-1,-1]     

 cryst.   s(17) = (    -1          0          1      )
                  (    -1          1          0      )
                  (    -1          0          0      )

 cart.    s(17) = (  0.0000000  1.0000000  0.0000000 )
                  (  0.0000000  0.0000000  1.0000000 )
                  (  1.0000000  0.0000000  0.0000000 )


      isym = 18     120 deg rotation - cart. axis [-1,1,1]       

 cryst.   s(18) = (     0          1          0      )
                  (     0          0          1      )
                  (     1          0          0      )

 cart.    s(18) = (  0.0000000 -1.0000000  0.0000000 )
                  (  0.0000000  0.0000000  1.0000000 )
                  ( -1.0000000  0.0000000  0.0000000 )


      isym = 19     120 deg rotation - cart. axis [1,1,-1]       

 cryst.   s(19) = (     1          0         -1      )
                  (     0          0         -1      )
                  (     0          1         -1      )

 cart.    s(19) = (  0.0000000  1.0000000  0.0000000 )
                  (  0.0000000  0.0000000 -1.0000000 )
                  ( -1.0000000  0.0000000  0.0000000 )


      isym = 20     120 deg rotation - cart. axis [1,-1,1]       

 cryst.   s(20) = (     0         -1          0      )
                  (     1         -1          0      )
                  (     0         -1          1      )

 cart.    s(20) = (  0.0000000 -1.0000000  0.0000000 )
                  (  0.0000000  0.0000000 -1.0000000 )
                  (  1.0000000  0.0000000  0.0000000 )


      isym = 21     120 deg rotation - cart. axis [1,1,1]        

 cryst.   s(21) = (     0          0         -1      )
                  (     0          1         -1      )
                  (     1          0         -1      )

 cart.    s(21) = (  0.0000000  0.0000000  1.0000000 )
                  (  1.0000000  0.0000000  0.0000000 )
                  (  0.0000000  1.0000000  0.0000000 )


      isym = 22     120 deg rotation - cart. axis [-1,1,-1]      

 cryst.   s(22) = (    -1          1          0      )
                  (    -1          0          0      )
                  (    -1          0          1      )

 cart.    s(22) = (  0.0000000  0.0000000  1.0000000 )
                  ( -1.0000000  0.0000000  0.0000000 )
                  (  0.0000000 -1.0000000  0.0000000 )


      isym = 23     120 deg rotation - cart. axis [1,-1,-1]      

 cryst.   s(23) = (     0          0          1      )
                  (     1          0          0      )
                  (     0          1          0      )

 cart.    s(23) = (  0.0000000  0.0000000 -1.0000000 )
                  ( -1.0000000  0.0000000  0.0000000 )
                  (  0.0000000  1.0000000  0.0000000 )


      isym = 24     120 deg rotation - cart. axis [-1,-1,1]      

 cryst.   s(24) = (     1         -1          0      )
                  (     0         -1          1      )
                  (     0         -1          0      )

 cart.    s(24) = (  0.0000000  0.0000000 -1.0000000 )
                  (  1.0000000  0.0000000  0.0000000 )
                  (  0.0000000 -1.0000000  0.0000000 )


      isym = 25     inversion                                    

 cryst.   s(25) = (    -1          0          0      )
                  (     0         -1          0      )
                  (     0          0         -1      )

 cart.    s(25) = ( -1.0000000  0.0000000  0.0000000 )
                  (  0.0000000 -1.0000000  0.0000000 )
                  (  0.0000000  0.0000000 -1.0000000 )


      isym = 26     inv. 180 deg rotation - cart. axis [0,0,1]   

 cryst.   s(26) = (     0         -1          1      )
                  (    -1          0          1      )
                  (     0          0          1      )

 cart.    s(26) = (  1.0000000  0.0000000  0.0000000 )
                  (  0.0000000  1.0000000  0.0000000 )
                  (  0.0000000  0.0000000 -1.0000000 )


      isym = 27     inv. 180 deg rotation - cart. axis [0,1,0]   

 cryst.   s(27) = (     1          0          0      )
                  (     1          0         -1      )
                  (     1         -1          0      )

 cart.    s(27) = (  1.0000000  0.0000000  0.0000000 )
                  (  0.0000000 -1.0000000  0.0000000 )
                  (  0.0000000  0.0000000  1.0000000 )


      isym = 28     inv. 180 deg rotation - cart. axis [1,0,0]   

 cryst.   s(28) = (     0          1         -1      )
                  (     0          1          0      )
                  (    -1          1          0      )

 cart.    s(28) = ( -1.0000000  0.0000000  0.0000000 )
                  (  0.0000000  1.0000000  0.0000000 )
                  (  0.0000000  0.0000000  1.0000000 )


      isym = 29     inv. 180 deg rotation - cart. axis [1,1,0]   

 cryst.   s(29) = (     0          1          0      )
                  (     1          0          0      )
                  (     0          0          1      )

 cart.    s(29) = (  0.0000000 -1.0000000  0.0000000 )
                  ( -1.0000000  0.0000000  0.0000000 )
                  (  0.0000000  0.0000000  1.0000000 )


      isym = 30     inv. 180 deg rotation - cart. axis [1,-1,0]  

 cryst.   s(30) = (     1          0         -1      )
                  (     0          1         -1      )
                  (     0          0         -1      )

 cart.    s(30) = (  0.0000000  1.0000000  0.0000000 )
                  (  1.0000000  0.0000000  0.0000000 )
                  (  0.0000000  0.0000000  1.0000000 )


      isym = 31     inv.  90 deg rotation - cart. axis [0,0,-1]  

 cryst.   s(31) = (     0         -1          0      )
                  (     0         -1          1      )
                  (     1         -1          0      )

 cart.    s(31) = (  0.0000000 -1.0000000  0.0000000 )
                  (  1.0000000  0.0000000  0.0000000 )
                  (  0.0000000  0.0000000 -1.0000000 )


      isym = 32     inv.  90 deg rotation - cart. axis [0,0,1]   

 cryst.   s(32) = (    -1          0          1      )
                  (    -1          0          0      )
                  (    -1          1          0      )

 cart.    s(32) = (  0.0000000  1.0000000  0.0000000 )
                  ( -1.0000000  0.0000000  0.0000000 )
                  (  0.0000000  0.0000000 -1.0000000 )


      isym = 33     inv. 180 deg rotation - cart. axis [1,0,1]   

 cryst.   s(33) = (     1          0          0      )
                  (     0          0          1      )
                  (     0          1          0      )

 cart.    s(33) = (  0.0000000  0.0000000 -1.0000000 )
                  (  0.0000000  1.0000000  0.0000000 )
                  ( -1.0000000  0.0000000  0.0000000 )


      isym = 34     inv. 180 deg rotation - cart. axis [-1,0,1]  

 cryst.   s(34) = (    -1          0          0      )
                  (    -1          1          0      )
                  (    -1          0          1      )

 cart.    s(34) = (  0.0000000  0.0000000  1.0000000 )
                  (  0.0000000  1.0000000  0.0000000 )
                  (  1.0000000  0.0000000  0.0000000 )


      isym = 35     inv.  90 deg rotation - cart. axis [0,1,0]   

 cryst.   s(35) = (     0         -1          1      )
                  (     1         -1          0      )
                  (     0         -1          0      )

 cart.    s(35) = (  0.0000000  0.0000000 -1.0000000 )
                  (  0.0000000 -1.0000000  0.0000000 )
                  (  1.0000000  0.0000000  0.0000000 )


      isym = 36     inv.  90 deg rotation - cart. axis [0,-1,0]  

 cryst.   s(36) = (     0          1         -1      )
                  (     0          0         -1      )
                  (     1          0         -1      )

 cart.    s(36) = (  0.0000000  0.0000000  1.0000000 )
                  (  0.0000000 -1.0000000  0.0000000 )
                  ( -1.0000000  0.0000000  0.0000000 )


      isym = 37     inv. 180 deg rotation - cart. axis [0,1,1]   

 cryst.   s(37) = (     1         -1          0      )
                  (     0         -1          0      )
                  (     0         -1          1      )

 cart.    s(37) = (  1.0000000  0.0000000  0.0000000 )
                  (  0.0000000  0.0000000 -1.0000000 )
                  (  0.0000000 -1.0000000  0.0000000 )


      isym = 38     inv. 180 deg rotation - cart. axis [0,1,-1]  

 cryst.   s(38) = (     0          0          1      )
                  (     0          1          0      )
                  (     1          0          0      )

 cart.    s(38) = (  1.0000000  0.0000000  0.0000000 )
                  (  0.0000000  0.0000000  1.0000000 )
                  (  0.0000000  1.0000000  0.0000000 )


      isym = 39     inv.  90 deg rotation - cart. axis [-1,0,0]  

 cryst.   s(39) = (     0          0         -1      )
                  (     1          0         -1      )
                  (     0          1         -1      )

 cart.    s(39) = ( -1.0000000  0.0000000  0.0000000 )
                  (  0.0000000  0.0000000 -1.0000000 )
                  (  0.0000000  1.0000000  0.0000000 )


      isym = 40     inv.  90 deg rotation - cart. axis [1,0,0]   

 cryst.   s(40) = (    -1          1          0      )
                  (    -1          0          1      )
                  (    -1          0          0      )

 cart.    s(40) = ( -1.0000000  0.0000000  0.0000000 )
                  (  0.0000000  0.0000000  1.0000000 )
                  (  0.0000000 -1.0000000  0.0000000 )


      isym = 41     inv. 120 deg rotation - cart. axis [-1,-1,-1]

 cryst.   s(41) = (     1          0         -1      )
                  (     1         -1          0      )
                  (     1          0          0      )

 cart.    s(41) = (  0.0000000 -1.0000000  0.0000000 )
                  (  0.0000000  0.0000000 -1.0000000 )
                  ( -1.0000000  0.0000000  0.0000000 )


      isym = 42     inv. 120 deg rotation - cart. axis [-1,1,1]  

 cryst.   s(42) = (     0         -1          0      )
                  (     0          0         -1      )
                  (    -1          0          0      )

 cart.    s(42) = (  0.0000000  1.0000000  0.0000000 )
                  (  0.0000000  0.0000000 -1.0000000 )
                  (  1.0000000  0.0000000  0.0000000 )


      isym = 43     inv. 120 deg rotation - cart. axis [1,1,-1]  

 cryst.   s(43) = (    -1          0          1      )
                  (     0          0          1      )
                  (     0         -1          1      )

 cart.    s(43) = (  0.0000000 -1.0000000  0.0000000 )
                  (  0.0000000  0.0000000  1.0000000 )
                  (  1.0000000  0.0000000  0.0000000 )


      isym = 44     inv. 120 deg rotation - cart. axis [1,-1,1]  

 cryst.   s(44) = (     0          1          0      )
                  (    -1          1          0      )
                  (     0          1         -1      )

 cart.    s(44) = (  0.0000000  1.0000000  0.0000000 )
                  (  0.0000000  0.0000000  1.0000000 )
                  ( -1.0000000  0.0000000  0.0000000 )


      isym = 45     inv. 120 deg rotation - cart. axis [1,1,1]   

 cryst.   s(45) = (     0          0          1      )
                  (     0         -1          1      )
                  (    -1          0          1      )

 cart.    s(45) = (  0.0000000  0.0000000 -1.0000000 )
                  ( -1.0000000  0.0000000  0.0000000 )
                  (  0.0000000 -1.0000000  0.0000000 )


      isym = 46     inv. 120 deg rotation - cart. axis [-1,1,-1] 

 cryst.   s(46) = (     1         -1          0      )
                  (     1          0          0      )
                  (     1          0         -1      )

 cart.    s(46) = (  0.0000000  0.0000000 -1.0000000 )
                  (  1.0000000  0.0000000  0.0000000 )
                  (  0.0000000  1.0000000  0.0000000 )


      isym = 47     inv. 120 deg rotation - cart. axis [1,-1,-1] 

 cryst.   s(47) = (     0          0         -1      )
                  (    -1          0          0      )
                  (     0         -1          0      )

 cart.    s(47) = (  0.0000000  0.0000000  1.0000000 )
                  (  1.0000000  0.0000000  0.0000000 )
                  (  0.0000000 -1.0000000  0.0000000 )


      isym = 48     inv. 120 deg rotation - cart. axis [-1,-1,1] 

 cryst.   s(48) = (    -1          1          0      )
                  (     0          1         -1      )
                  (     0          1          0      )

 cart.    s(48) = (  0.0000000  0.0000000  1.0000000 )
                  ( -1.0000000  0.0000000  0.0000000 )
                  (  0.0000000  1.0000000  0.0000000 )


     point group O_h (m-3m) 
     there are 10 classes
     the character table:

       E     8C3   3C2   6C4   6C2'  i     8S6   3s_h  6S4   6s_d 
A_1g   1.00  1.00  1.00  1.00  1.00  1.00  1.00  1.00  1.00  1.00
A_2g   1.00  1.00  1.00 -1.00 -1.00  1.00  1.00  1.00 -1.00 -1.00
E_g    2.00 -1.00  2.00  0.00  0.00  2.00 -1.00  2.00  0.00  0.00
T_1g   3.00  0.00 -1.00  1.00 -1.00  3.00  0.00 -1.00  1.00 -1.00
T_2g   3.00  0.00 -1.00 -1.00  1.00  3.00  0.00 -1.00 -1.00  1.00
A_1u   1.00  1.00  1.00  1.00  1.00 -1.00 -1.00 -1.00 -1.00 -1.00
A_2u   1.00  1.00  1.00 -1.00 -1.00 -1.00 -1.00 -1.00  1.00  1.00
E_u    2.00 -1.00  2.00  0.00  0.00 -2.00  1.00 -2.00  0.00  0.00
T_1u   3.00  0.00 -1.00  1.00 -1.00 -3.00  0.00  1.00 -1.00  1.00
T_2u   3.00  0.00 -1.00 -1.00  1.00 -3.00  0.00  1.00  1.00 -1.00

     the symmetry operations in each class and the name of the first element:

     E        1
          identity                                               
     8C3     17   19   20   18   24   21   22   23
          120 deg rotation - cart. axis [-1,-1,-1]               
     3C2      2    4    3
          180 deg rotation - cart. axis [0,0,1]                  
     6C4      7    8   15   16   12   11
           90 deg rotation - cart. axis [0,0,-1]                 
     6C2'     5    6   14   13   10    9
          180 deg rotation - cart. axis [1,1,0]                  
     i       25
          inversion                                              
     8S6     41   43   44   42   48   45   46   47
          inv. 120 deg rotation - cart. axis [-1,-1,-1]          
     3s_h    26   28   27
          inv. 180 deg rotation - cart. axis [0,0,1]             
     6S4     31   32   39   40   36   35
          inv.  90 deg rotation - cart. axis [0,0,-1]            
     6s_d    29   30   38   37   34   33
          inv. 180 deg rotation - cart. axis [1,1,0]             

   Cartesian axes

     site n.     atom                  positions (alat units)
         1           Rb  tau(   1) = (   0.0000000   0.0000000   0.0000000  )
         2           Br  tau(   2) = (  -0.5000000   0.5000000   0.5000000  )

   Crystallographic axes

     site n.     atom                  positions (cryst. coord.)
         1           Rb  tau(   1) = (  0.0000000  0.0000000  0.0000000  )
         2           Br  tau(   2) = (  0.5000000  0.5000000  0.5000000  )

     number of k points=   101
                       cart. coord. in units 2pi/alat
        k(    1) = (   0.0000000   0.0000000   0.0000000), wk =   0.0198020
        k(    2) = (   0.0100000   0.0100000   0.0000000), wk =   0.0198020
        k(    3) = (   0.0200000   0.0200000   0.0000000), wk =   0.0198020
        k(    4) = (   0.0300000   0.0300000   0.0000000), wk =   0.0198020
        k(    5) = (   0.0400000   0.0400000   0.0000000), wk =   0.0198020
        k(    6) = (   0.0500000   0.0500000   0.0000000), wk =   0.0198020
        k(    7) = (   0.0600000   0.0600000   0.0000000), wk =   0.0198020
        k(    8) = (   0.0700000   0.0700000   0.0000000), wk =   0.0198020
        k(    9) = (   0.0800000   0.0800000   0.0000000), wk =   0.0198020
        k(   10) = (   0.0900000   0.0900000   0.0000000), wk =   0.0198020
        k(   11) = (   0.1000000   0.1000000   0.0000000), wk =   0.0198020
        k(   12) = (   0.1100000   0.1100000   0.0000000), wk =   0.0198020
        k(   13) = (   0.1200000   0.1200000   0.0000000), wk =   0.0198020
        k(   14) = (   0.1300000   0.1300000   0.0000000), wk =   0.0198020
        k(   15) = (   0.1400000   0.1400000   0.0000000), wk =   0.0198020
        k(   16) = (   0.1500000   0.1500000   0.0000000), wk =   0.0198020
        k(   17) = (   0.1600000   0.1600000   0.0000000), wk =   0.0198020
        k(   18) = (   0.1700000   0.1700000   0.0000000), wk =   0.0198020
        k(   19) = (   0.1800000   0.1800000   0.0000000), wk =   0.0198020
        k(   20) = (   0.1900000   0.1900000   0.0000000), wk =   0.0198020
        k(   21) = (   0.2000000   0.2000000   0.0000000), wk =   0.0198020
        k(   22) = (   0.2100000   0.2100000   0.0000000), wk =   0.0198020
        k(   23) = (   0.2200000   0.2200000   0.0000000), wk =   0.0198020
        k(   24) = (   0.2300000   0.2300000   0.0000000), wk =   0.0198020
        k(   25) = (   0.2400000   0.2400000   0.0000000), wk =   0.0198020
        k(   26) = (   0.2500000   0.2500000   0.0000000), wk =   0.0198020
        k(   27) = (   0.2600000   0.2600000   0.0000000), wk =   0.0198020
        k(   28) = (   0.2700000   0.2700000   0.0000000), wk =   0.0198020
        k(   29) = (   0.2800000   0.2800000   0.0000000), wk =   0.0198020
        k(   30) = (   0.2900000   0.2900000   0.0000000), wk =   0.0198020
        k(   31) = (   0.3000000   0.3000000   0.0000000), wk =   0.0198020
        k(   32) = (   0.3100000   0.3100000   0.0000000), wk =   0.0198020
        k(   33) = (   0.3200000   0.3200000   0.0000000), wk =   0.0198020
        k(   34) = (   0.3300000   0.3300000   0.0000000), wk =   0.0198020
        k(   35) = (   0.3400000   0.3400000   0.0000000), wk =   0.0198020
        k(   36) = (   0.3500000   0.3500000   0.0000000), wk =   0.0198020
        k(   37) = (   0.3600000   0.3600000   0.0000000), wk =   0.0198020
        k(   38) = (   0.3700000   0.3700000   0.0000000), wk =   0.0198020
        k(   39) = (   0.3800000   0.3800000   0.0000000), wk =   0.0198020
        k(   40) = (   0.3900000   0.3900000   0.0000000), wk =   0.0198020
        k(   41) = (   0.4000000   0.4000000   0.0000000), wk =   0.0198020
        k(   42) = (   0.4100000   0.4100000   0.0000000), wk =   0.0198020
        k(   43) = (   0.4200000   0.4200000   0.0000000), wk =   0.0198020
        k(   44) = (   0.4300000   0.4300000   0.0000000), wk =   0.0198020
        k(   45) = (   0.4400000   0.4400000   0.0000000), wk =   0.0198020
        k(   46) = (   0.4500000   0.4500000   0.0000000), wk =   0.0198020
        k(   47) = (   0.4600000   0.4600000   0.0000000), wk =   0.0198020
        k(   48) = (   0.4700000   0.4700000   0.0000000), wk =   0.0198020
        k(   49) = (   0.4800000   0.4800000   0.0000000), wk =   0.0198020
        k(   50) = (   0.4900000   0.4900000   0.0000000), wk =   0.0198020
        k(   51) = (   0.5000000   0.5000000   0.0000000), wk =   0.0198020
        k(   52) = (   0.5100000   0.5100000   0.0000000), wk =   0.0198020
        k(   53) = (   0.5200000   0.5200000   0.0000000), wk =   0.0198020
        k(   54) = (   0.5300000   0.5300000   0.0000000), wk =   0.0198020
        k(   55) = (   0.5400000   0.5400000   0.0000000), wk =   0.0198020
        k(   56) = (   0.5500000   0.5500000   0.0000000), wk =   0.0198020
        k(   57) = (   0.5600000   0.5600000   0.0000000), wk =   0.0198020
        k(   58) = (   0.5700000   0.5700000   0.0000000), wk =   0.0198020
        k(   59) = (   0.5800000   0.5800000   0.0000000), wk =   0.0198020
        k(   60) = (   0.5900000   0.5900000   0.0000000), wk =   0.0198020
        k(   61) = (   0.6000000   0.6000000   0.0000000), wk =   0.0198020
        k(   62) = (   0.6100000   0.6100000   0.0000000), wk =   0.0198020
        k(   63) = (   0.6200000   0.6200000   0.0000000), wk =   0.0198020
        k(   64) = (   0.6300000   0.6300000   0.0000000), wk =   0.0198020
        k(   65) = (   0.6400000   0.6400000   0.0000000), wk =   0.0198020
        k(   66) = (   0.6500000   0.6500000   0.0000000), wk =   0.0198020
        k(   67) = (   0.6600000   0.6600000   0.0000000), wk =   0.0198020
        k(   68) = (   0.6700000   0.6700000   0.0000000), wk =   0.0198020
        k(   69) = (   0.6800000   0.6800000   0.0000000), wk =   0.0198020
        k(   70) = (   0.6900000   0.6900000   0.0000000), wk =   0.0198020
        k(   71) = (   0.7000000   0.7000000   0.0000000), wk =   0.0198020
        k(   72) = (   0.7100000   0.7100000   0.0000000), wk =   0.0198020
        k(   73) = (   0.7200000   0.7200000   0.0000000), wk =   0.0198020
        k(   74) = (   0.7300000   0.7300000   0.0000000), wk =   0.0198020
        k(   75) = (   0.7400000   0.7400000   0.0000000), wk =   0.0198020
        k(   76) = (   0.7500000   0.7500000   0.0000000), wk =   0.0198020
        k(   77) = (   0.7600000   0.7600000   0.0000000), wk =   0.0198020
        k(   78) = (   0.7700000   0.7700000   0.0000000), wk =   0.0198020
        k(   79) = (   0.7800000   0.7800000   0.0000000), wk =   0.0198020
        k(   80) = (   0.7900000   0.7900000   0.0000000), wk =   0.0198020
        k(   81) = (   0.8000000   0.8000000   0.0000000), wk =   0.0198020
        k(   82) = (   0.8100000   0.8100000   0.0000000), wk =   0.0198020
        k(   83) = (   0.8200000   0.8200000   0.0000000), wk =   0.0198020
        k(   84) = (   0.8300000   0.8300000   0.0000000), wk =   0.0198020
        k(   85) = (   0.8400000   0.8400000   0.0000000), wk =   0.0198020
        k(   86) = (   0.8500000   0.8500000   0.0000000), wk =   0.0198020
        k(   87) = (   0.8600000   0.8600000   0.0000000), wk =   0.0198020
        k(   88) = (   0.8700000   0.8700000   0.0000000), wk =   0.0198020
        k(   89) = (   0.8800000   0.8800000   0.0000000), wk =   0.0198020
        k(   90) = (   0.8900000   0.8900000   0.0000000), wk =   0.0198020
        k(   91) = (   0.9000000   0.9000000   0.0000000), wk =   0.0198020
        k(   92) = (   0.9100000   0.9100000   0.0000000), wk =   0.0198020
        k(   93) = (   0.9200000   0.9200000   0.0000000), wk =   0.0198020
        k(   94) = (   0.9300000   0.9300000   0.0000000), wk =   0.0198020
        k(   95) = (   0.9400000   0.9400000   0.0000000), wk =   0.0198020
        k(   96) = (   0.9500000   0.9500000   0.0000000), wk =   0.0198020
        k(   97) = (   0.9600000   0.9600000   0.0000000), wk =   0.0198020
        k(   98) = (   0.9700000   0.9700000   0.0000000), wk =   0.0198020
        k(   99) = (   0.9800000   0.9800000   0.0000000), wk =   0.0198020
        k(  100) = (   0.9900000   0.9900000   0.0000000), wk =   0.0198020
        k(  101) = (   1.0000000   1.0000000   0.0000000), wk =   0.0198020

                       cryst. coord.
        k(    1) = (   0.0000000   0.0000000   0.0000000), wk =   0.0198020
        k(    2) = (  -0.0050000   0.0050000   0.0000000), wk =   0.0198020
        k(    3) = (  -0.0100000   0.0100000   0.0000000), wk =   0.0198020
        k(    4) = (  -0.0150000   0.0150000   0.0000000), wk =   0.0198020
        k(    5) = (  -0.0200000   0.0200000   0.0000000), wk =   0.0198020
        k(    6) = (  -0.0250000   0.0250000   0.0000000), wk =   0.0198020
        k(    7) = (  -0.0300000   0.0300000   0.0000000), wk =   0.0198020
        k(    8) = (  -0.0350000   0.0350000   0.0000000), wk =   0.0198020
        k(    9) = (  -0.0400000   0.0400000   0.0000000), wk =   0.0198020
        k(   10) = (  -0.0450000   0.0450000   0.0000000), wk =   0.0198020
        k(   11) = (  -0.0500000   0.0500000   0.0000000), wk =   0.0198020
        k(   12) = (  -0.0550000   0.0550000   0.0000000), wk =   0.0198020
        k(   13) = (  -0.0600000   0.0600000   0.0000000), wk =   0.0198020
        k(   14) = (  -0.0650000   0.0650000   0.0000000), wk =   0.0198020
        k(   15) = (  -0.0700000   0.0700000   0.0000000), wk =   0.0198020
        k(   16) = (  -0.0750000   0.0750000   0.0000000), wk =   0.0198020
        k(   17) = (  -0.0800000   0.0800000   0.0000000), wk =   0.0198020
        k(   18) = (  -0.0850000   0.0850000   0.0000000), wk =   0.0198020
        k(   19) = (  -0.0900000   0.0900000   0.0000000), wk =   0.0198020
        k(   20) = (  -0.0950000   0.0950000   0.0000000), wk =   0.0198020
        k(   21) = (  -0.1000000   0.1000000   0.0000000), wk =   0.0198020
        k(   22) = (  -0.1050000   0.1050000   0.0000000), wk =   0.0198020
        k(   23) = (  -0.1100000   0.1100000   0.0000000), wk =   0.0198020
        k(   24) = (  -0.1150000   0.1150000   0.0000000), wk =   0.0198020
        k(   25) = (  -0.1200000   0.1200000   0.0000000), wk =   0.0198020
        k(   26) = (  -0.1250000   0.1250000   0.0000000), wk =   0.0198020
        k(   27) = (  -0.1300000   0.1300000   0.0000000), wk =   0.0198020
        k(   28) = (  -0.1350000   0.1350000   0.0000000), wk =   0.0198020
        k(   29) = (  -0.1400000   0.1400000   0.0000000), wk =   0.0198020
        k(   30) = (  -0.1450000   0.1450000   0.0000000), wk =   0.0198020
        k(   31) = (  -0.1500000   0.1500000   0.0000000), wk =   0.0198020
        k(   32) = (  -0.1550000   0.1550000   0.0000000), wk =   0.0198020
        k(   33) = (  -0.1600000   0.1600000   0.0000000), wk =   0.0198020
        k(   34) = (  -0.1650000   0.1650000   0.0000000), wk =   0.0198020
        k(   35) = (  -0.1700000   0.1700000   0.0000000), wk =   0.0198020
        k(   36) = (  -0.1750000   0.1750000   0.0000000), wk =   0.0198020
        k(   37) = (  -0.1800000   0.1800000   0.0000000), wk =   0.0198020
        k(   38) = (  -0.1850000   0.1850000   0.0000000), wk =   0.0198020
        k(   39) = (  -0.1900000   0.1900000   0.0000000), wk =   0.0198020
        k(   40) = (  -0.1950000   0.1950000   0.0000000), wk =   0.0198020
        k(   41) = (  -0.2000000   0.2000000   0.0000000), wk =   0.0198020
        k(   42) = (  -0.2050000   0.2050000   0.0000000), wk =   0.0198020
        k(   43) = (  -0.2100000   0.2100000   0.0000000), wk =   0.0198020
        k(   44) = (  -0.2150000   0.2150000   0.0000000), wk =   0.0198020
        k(   45) = (  -0.2200000   0.2200000   0.0000000), wk =   0.0198020
        k(   46) = (  -0.2250000   0.2250000   0.0000000), wk =   0.0198020
        k(   47) = (  -0.2300000   0.2300000   0.0000000), wk =   0.0198020
        k(   48) = (  -0.2350000   0.2350000   0.0000000), wk =   0.0198020
        k(   49) = (  -0.2400000   0.2400000   0.0000000), wk =   0.0198020
        k(   50) = (  -0.2450000   0.2450000   0.0000000), wk =   0.0198020
        k(   51) = (  -0.2500000   0.2500000   0.0000000), wk =   0.0198020
        k(   52) = (  -0.2550000   0.2550000   0.0000000), wk =   0.0198020
        k(   53) = (  -0.2600000   0.2600000   0.0000000), wk =   0.0198020
        k(   54) = (  -0.2650000   0.2650000   0.0000000), wk =   0.0198020
        k(   55) = (  -0.2700000   0.2700000   0.0000000), wk =   0.0198020
        k(   56) = (  -0.2750000   0.2750000   0.0000000), wk =   0.0198020
        k(   57) = (  -0.2800000   0.2800000   0.0000000), wk =   0.0198020
        k(   58) = (  -0.2850000   0.2850000   0.0000000), wk =   0.0198020
        k(   59) = (  -0.2900000   0.2900000   0.0000000), wk =   0.0198020
        k(   60) = (  -0.2950000   0.2950000   0.0000000), wk =   0.0198020
        k(   61) = (  -0.3000000   0.3000000   0.0000000), wk =   0.0198020
        k(   62) = (  -0.3050000   0.3050000   0.0000000), wk =   0.0198020
        k(   63) = (  -0.3100000   0.3100000   0.0000000), wk =   0.0198020
        k(   64) = (  -0.3150000   0.3150000   0.0000000), wk =   0.0198020
        k(   65) = (  -0.3200000   0.3200000   0.0000000), wk =   0.0198020
        k(   66) = (  -0.3250000   0.3250000   0.0000000), wk =   0.0198020
        k(   67) = (  -0.3300000   0.3300000   0.0000000), wk =   0.0198020
        k(   68) = (  -0.3350000   0.3350000   0.0000000), wk =   0.0198020
        k(   69) = (  -0.3400000   0.3400000   0.0000000), wk =   0.0198020
        k(   70) = (  -0.3450000   0.3450000   0.0000000), wk =   0.0198020
        k(   71) = (  -0.3500000   0.3500000   0.0000000), wk =   0.0198020
        k(   72) = (  -0.3550000   0.3550000   0.0000000), wk =   0.0198020
        k(   73) = (  -0.3600000   0.3600000   0.0000000), wk =   0.0198020
        k(   74) = (  -0.3650000   0.3650000   0.0000000), wk =   0.0198020
        k(   75) = (  -0.3700000   0.3700000   0.0000000), wk =   0.0198020
        k(   76) = (  -0.3750000   0.3750000   0.0000000), wk =   0.0198020
        k(   77) = (  -0.3800000   0.3800000   0.0000000), wk =   0.0198020
        k(   78) = (  -0.3850000   0.3850000   0.0000000), wk =   0.0198020
        k(   79) = (  -0.3900000   0.3900000   0.0000000), wk =   0.0198020
        k(   80) = (  -0.3950000   0.3950000   0.0000000), wk =   0.0198020
        k(   81) = (  -0.4000000   0.4000000   0.0000000), wk =   0.0198020
        k(   82) = (  -0.4050000   0.4050000   0.0000000), wk =   0.0198020
        k(   83) = (  -0.4100000   0.4100000   0.0000000), wk =   0.0198020
        k(   84) = (  -0.4150000   0.4150000   0.0000000), wk =   0.0198020
        k(   85) = (  -0.4200000   0.4200000   0.0000000), wk =   0.0198020
        k(   86) = (  -0.4250000   0.4250000   0.0000000), wk =   0.0198020
        k(   87) = (  -0.4300000   0.4300000   0.0000000), wk =   0.0198020
        k(   88) = (  -0.4350000   0.4350000   0.0000000), wk =   0.0198020
        k(   89) = (  -0.4400000   0.4400000   0.0000000), wk =   0.0198020
        k(   90) = (  -0.4450000   0.4450000   0.0000000), wk =   0.0198020
        k(   91) = (  -0.4500000   0.4500000   0.0000000), wk =   0.0198020
        k(   92) = (  -0.4550000   0.4550000   0.0000000), wk =   0.0198020
        k(   93) = (  -0.4600000   0.4600000   0.0000000), wk =   0.0198020
        k(   94) = (  -0.4650000   0.4650000   0.0000000), wk =   0.0198020
        k(   95) = (  -0.4700000   0.4700000   0.0000000), wk =   0.0198020
        k(   96) = (  -0.4750000   0.4750000   0.0000000), wk =   0.0198020
        k(   97) = (  -0.4800000   0.4800000   0.0000000), wk =   0.0198020
        k(   98) = (  -0.4850000   0.4850000   0.0000000), wk =   0.0198020
        k(   99) = (  -0.4900000   0.4900000   0.0000000), wk =   0.0198020
        k(  100) = (  -0.4950000   0.4950000   0.0000000), wk =   0.0198020
        k(  101) = (  -0.5000000   0.5000000   0.0000000), wk =   0.0198020

     Dense  grid:    42087 G-vectors     FFT dimensions: (  50,  50,  50)

     Dynamical RAM for                 wfc:       1.93 MB

     Dynamical RAM for     wfc (w. buffer):       1.93 MB

     Dynamical RAM for           str. fact:       1.28 MB

     Dynamical RAM for           local pot:       0.00 MB

     Dynamical RAM for          nlocal pot:       2.09 MB

     Dynamical RAM for                qrad:       2.61 MB

     Dynamical RAM for          rho,v,vnew:       4.79 MB

     Dynamical RAM for           G-vectors:       2.73 MB

     Dynamical RAM for          h,s,v(r/c):       0.11 MB

     Dynamical RAM for          <psi|beta>:       0.01 MB

     Dynamical RAM for                 psi:       3.86 MB

     Dynamical RAM for                hpsi:       3.86 MB

     Dynamical RAM for                spsi:       3.86 MB

     Dynamical RAM for      wfcinit/wfcrot:       3.88 MB

     Dynamical RAM for           addusdens:       3.63 MB

     Estimated static dynamical RAM per process >      22.13 MB

     Estimated max dynamical RAM per process >      33.83 MB

     Estimated total dynamical RAM >       1.32 GB

     Check: negative core charge=   -0.000002

     The potential is recalculated from file :
     ./rbbr.save/charge-density

     Starting wfcs are   12 randomized atomic wfcs +   12 random wfcs
     Checking if some PAW data can be deallocated... 
       PAW data deallocated on   20 nodes for type:  1
       PAW data deallocated on   20 nodes for type:  2

     Band Structure Calculation
     Davidson diagonalization with overlap

     Computing kpt #:     1  of     3 on this pool
     total cpu time spent up to now is        4.0 secs

     Computing kpt #:     2  of     3 on this pool
     total cpu time spent up to now is        6.4 secs

     Computing kpt #:     3  of     3 on this pool
     total cpu time spent up to now is        8.4 secs

     ethr =  6.25E-13,  avg # of iterations = 48.8

     total cpu time spent up to now is        8.5 secs

     End of band structure calculation

          k = 0.0000 0.0000 0.0000 (  5209 PWs)   bands (ev):

   -23.7697 -11.3135  -7.8363  -7.8363  -7.8363   0.8030   0.8030   0.8030
     4.9969   8.0586   8.0586   8.0586   8.9003   8.9003  11.6163  16.1247
    16.1247  16.1247  16.2570  16.2570  16.2570  18.9399  18.9399  19.0139

          k = 0.0100 0.0100 0.0000 (  5209 PWs)   bands (ev):

   -23.7697 -11.3136  -7.8364  -7.8363  -7.8363   0.8021   0.8027   0.8028
     4.9985   8.0578   8.0592   8.0598   8.9009   8.9014  11.6188  16.0841
    16.0861  16.1235  16.2536  16.2915  16.2957  18.8986  18.9212  19.0140

          k = 0.0200 0.0200 0.0000 (  5209 PWs)   bands (ev):

   -23.7697 -11.3136  -7.8364  -7.8363  -7.8362   0.7997   0.8019   0.8025
     5.0032   8.0555   8.0608   8.0634   8.9028   8.9049  11.6264  16.0062
    16.0158  16.1201  16.2434  16.3512  16.3666  18.8364  18.8829  19.0141

          k = 0.0300 0.0300 0.0000 (  5209 PWs)   bands (ev):

   -23.7697 -11.3137  -7.8366  -7.8363  -7.8360   0.7956   0.8006   0.8020
     5.0111   8.0516   8.0634   8.0693   8.9060   8.9108  11.6390  15.9166
    15.9394  16.1144  16.2266  16.4107  16.4438  18.7742  18.8366  19.0143

          k = 0.0400 0.0400 0.0000 (  5207 PWs)   bands (ev):

   -23.7697 -11.3138  -7.8367  -7.8362  -7.8358   0.7899   0.7988   0.8012
     5.0221   8.0463   8.0671   8.0775   8.9105   8.9189  11.6566  15.8202
    15.8615  16.1065  16.2033  16.4651  16.5228  18.7141  18.7850  19.0147

          k = 0.0500 0.0500 0.0000 (  5207 PWs)   bands (ev):

   -23.7696 -11.3140  -7.8370  -7.8362  -7.8356   0.7827   0.7965   0.8002
     5.0362   8.0395   8.0719   8.0881   8.9162   8.9293  11.6791  15.7186
    15.7834  16.0963  16.1736  16.5131  16.6021  18.6565  18.7292  19.0154

          k = 0.0600 0.0600 0.0000 (  5211 PWs)   bands (ev):

   -23.7696 -11.3142  -7.8373  -7.8361  -7.8352   0.7739   0.7937   0.7990
     5.0533   8.0314   8.0778   8.1010   8.9232   8.9420  11.7064  15.6126
    15.7056  16.0840  16.1377  16.5539  16.6812  18.6015  18.6697  19.0166

          k = 0.0700 0.0700 0.0000 (  5209 PWs)   bands (ev):

   -23.7695 -11.3144  -7.8376  -7.8360  -7.8348   0.7637   0.7904   0.7976
     5.0733   8.0221   8.0847   8.1163   8.9314   8.9570  11.7383  15.5028
    15.6282  16.0696  16.0961  16.5873  16.7596  18.5490  18.6072  19.0184

          k = 0.0800 0.0800 0.0000 (  5201 PWs)   bands (ev):

   -23.7695 -11.3147  -7.8380  -7.8360  -7.8344   0.7522   0.7866   0.7960
     5.0962   8.0117   8.0927   8.1338   8.9409   8.9743  11.7749  15.3898
    15.5515  16.0489  16.0531  16.6129  16.8369  18.4991  18.5423  19.0212

          k = 0.0900 0.0900 0.0000 (  5203 PWs)   bands (ev):

   -23.7694 -11.3150  -7.8385  -7.8359  -7.8339   0.7393   0.7824   0.7942
     5.1219   8.0003   8.1017   8.1537   8.9517   8.9938  11.8159  15.2739
    15.4755  15.9964  16.0346  16.6304  16.9128  18.4516  18.4758  19.0250

          k = 0.1000 0.1000 0.0000 (  5199 PWs)   bands (ev):

   -23.7693 -11.3153  -7.8390  -7.8358  -7.8333   0.7253   0.7777   0.7921
     5.1503   7.9880   8.1118   8.1757   8.9636   9.0154  11.8611  15.1556
    15.4004  15.9391  16.0141  16.6397  16.9868  18.4062  18.4085  19.0304

          k = 0.1100 0.1100 0.0000 (  5203 PWs)   bands (ev):

   -23.7692 -11.3157  -7.8395  -7.8357  -7.8327   0.7101   0.7726   0.7898
     5.1813   7.9749   8.1230   8.2000   8.9768   9.0393  11.9105  15.0352
    15.3262  15.8773  15.9918  16.6406  17.0585  18.3411  18.3628  19.0376

          k = 0.1200 0.1200 0.0000 (  5210 PWs)   bands (ev):

   -23.7692 -11.3161  -7.8401  -7.8355  -7.8321   0.6939   0.7672   0.7874
     5.2148   7.9613   8.1352   8.2265   8.9912   9.0653  11.9639  14.9130
    15.2529  15.8114  15.9678  16.6329  17.1275  18.2743  18.3212  19.0470

          k = 0.1300 0.1300 0.0000 (  5210 PWs)   bands (ev):

   -23.7691 -11.3165  -7.8408  -7.8354  -7.8314   0.6767   0.7613   0.7847
     5.2507   7.9472   8.1484   8.2552   9.0067   9.0934  12.0211  14.7894
    15.1808  15.7416  15.9420  16.6164  17.1932  18.2089  18.2811  19.0592

          k = 0.1400 0.1400 0.0000 (  5222 PWs)   bands (ev):

   -23.7690 -11.3169  -7.8415  -7.8353  -7.8307   0.6587   0.7551   0.7818
     5.2888   7.9327   8.1627   8.2860   9.0234   9.1236  12.0819  14.6647
    15.1098  15.6684  15.9146  16.5909  17.2551  18.1456  18.2424  19.0747

          k = 0.1500 0.1500 0.0000 (  5226 PWs)   bands (ev):

   -23.7688 -11.3174  -7.8423  -7.8352  -7.8300   0.6400   0.7486   0.7787
     5.3291   7.9180   8.1781   8.3188   9.0413   9.1558  12.1461  14.5391
    15.0399  15.5921  15.8857  16.5565  17.3126  18.0849  18.2047  19.0938

          k = 0.1600 0.1600 0.0000 (  5228 PWs)   bands (ev):

   -23.7687 -11.3178  -7.8431  -7.8351  -7.8292   0.6206   0.7418   0.7754
     5.3715   7.9032   8.1945   8.3537   9.0602   9.1900  12.2136  14.4128
    14.9714  15.5130  15.8553  16.5131  17.3652  18.0273  18.1681  19.1172

          k = 0.1700 0.1700 0.0000 (  5240 PWs)   bands (ev):

   -23.7686 -11.3183  -7.8440  -7.8350  -7.8284   0.6007   0.7347   0.7719
     5.4158   7.8884   8.2119   8.3906   9.0803   9.2261  12.2842  14.2862
    14.9041  15.4314  15.8236  16.4611  17.4123  17.9730  18.1321  19.1454

          k = 0.1800 0.1800 0.0000 (  5240 PWs)   bands (ev):

   -23.7685 -11.3188  -7.8449  -7.8349  -7.8276   0.5804   0.7274   0.7681
     5.4620   7.8738   8.2304   8.4294   9.1013   9.2642  12.3576  14.1594
    14.8384  15.3475  15.7906  16.4008  17.4536  17.9221  18.0967  19.1786

          k = 0.1900 0.1900 0.0000 (  5248 PWs)   bands (ev):

   -23.7683 -11.3193  -7.8458  -7.8348  -7.8267   0.5597   0.7198   0.7642
     5.5099   7.8595   8.2499   8.4701   9.1234   9.3041  12.4338  14.0326
    14.7741  15.2617  15.7564  16.3326  17.4887  17.8747  18.0618  19.2111

          k = 0.2000 0.2000 0.0000 (  5256 PWs)   bands (ev):

   -23.7682 -11.3198  -7.8469  -7.8347  -7.8259   0.5387   0.7120   0.7601
     5.5593   7.8455   8.2705   8.5126   9.1464   9.3458  12.5123  13.9060
    14.7116  15.1741  15.7212  16.2572  17.5173  17.8303  18.0272  19.1984

          k = 0.2100 0.2100 0.0000 (  5256 PWs)   bands (ev):

   -23.7681 -11.3203  -7.8479  -7.8346  -7.8250   0.5176   0.7041   0.7559
     5.6103   7.8320   8.2921   8.5569   9.1702   9.3893  12.5930  13.7799
    14.6509  15.0850  15.6849  16.1753  17.5393  17.7888  17.9928  19.1845

          k = 0.2200 0.2200 0.0000 (  5258 PWs)   bands (ev):

   -23.7679 -11.3208  -7.8491  -7.8345  -7.8242   0.4964   0.6961   0.7514
     5.6627   7.8190   8.3147   8.6028   9.1949   9.4345  12.6755  13.6544
    14.5922  14.9946  15.6478  16.0876  17.5549  17.7498  17.9586  19.1696

          k = 0.2300 0.2300 0.0000 (  5262 PWs)   bands (ev):

   -23.7678 -11.3213  -7.8502  -7.8345  -7.8233   0.4753   0.6879   0.7467
     5.7164   7.8067   8.3383   8.6503   9.2203   9.4813  12.7595  13.5298
    14.5358  14.9030  15.6098  15.9949  17.5640  17.7129  17.9244  19.1541

          k = 0.2400 0.2400 0.0000 (  5254 PWs)   bands (ev):

   -23.7676 -11.3217  -7.8515  -7.8344  -7.8225   0.4542   0.6797   0.7419
     5.7712   7.7951   8.3629   8.6993   9.2464   9.5298  12.8446  13.4061
    14.4822  14.8105  15.5711  15.8980  17.5671  17.6777  17.8903  19.1382

          k = 0.2500 0.2500 0.0000 (  5250 PWs)   bands (ev):

   -23.7674 -11.3222  -7.8527  -7.8344  -7.8217   0.4332   0.6714   0.7369
     5.8272   7.7843   8.3886   8.7497   9.2730   9.5798  12.9301  13.2837
    14.4316  14.7171  15.5318  15.7975  17.5645  17.6438  17.8561  19.1222

          k = 0.2600 0.2600 0.0000 (  5250 PWs)   bands (ev):

   -23.7673 -11.3227  -7.8540  -7.8344  -7.8208   0.4125   0.6631   0.7317
     5.8841   7.7743   8.4153   8.8014   9.3000   9.6312  13.0153  13.1626
    14.3849  14.6231  15.4919  15.6942  17.5565  17.6109  17.8220  19.1064

          k = 0.2700 0.2700 0.0000 (  5262 PWs)   bands (ev):

   -23.7671 -11.3231  -7.8554  -7.8344  -7.8201   0.3922   0.6549   0.7263
     5.9420   7.7653   8.4429   8.8544   9.3272   9.6841  13.0431  13.0992
    14.3429  14.5285  15.4514  15.5886  17.5435  17.5788  17.7878  19.0909

          k = 0.2800 0.2800 0.0000 (  5266 PWs)   bands (ev):

   -23.7669 -11.3235  -7.8568  -7.8344  -7.8193   0.3722   0.6466   0.7208
     6.0006   7.7572   8.4716   8.9084   9.3546   9.7384  12.9255  13.1805
    14.3069  14.4334  15.4106  15.4814  17.5259  17.5473  17.7536  19.0759

          k = 0.2900 0.2900 0.0000 (  5266 PWs)   bands (ev):

   -23.7668 -11.3239  -7.8583  -7.8345  -7.8186   0.3526   0.6384   0.7151
     6.0599   7.7502   8.5012   8.9634   9.3819   9.7939  12.8098  13.2573
    14.2786  14.3380  15.3694  15.3731  17.5042  17.5161  17.7195  19.0615

          k = 0.3000 0.3000 0.0000 (  5260 PWs)   bands (ev):

   -23.7666 -11.3242  -7.8598  -7.8346  -7.8179   0.3336   0.6304   0.7093
     6.1199   7.7443   8.5319   9.0192   9.4090   9.8507  12.6965  13.3270
    14.2424  14.2605  15.2643  15.3279  17.4787  17.4853  17.6855  19.0478

          k = 0.3100 0.3100 0.0000 (  5262 PWs)   bands (ev):

   -23.7664 -11.3246  -7.8613  -7.8347  -7.8173   0.3151   0.6224   0.7034
     6.1804   7.7394   8.5635   9.0758   9.4355   9.9087  12.5856  13.3869
    14.1467  14.2554  15.1555  15.2862  17.4497  17.4546  17.6516  19.0350

          k = 0.3200 0.3200 0.0000 (  5262 PWs)   bands (ev):

   -23.7663 -11.3248  -7.8629  -7.8348  -7.8167   0.2972   0.6146   0.6973
     6.2413   7.7357   8.5960   9.1329   9.4612   9.9677  12.4776  13.4338
    14.0509  14.2663  15.0470  15.2444  17.4176  17.4241  17.6179  19.0231

          k = 0.3300 0.3300 0.0000 (  5270 PWs)   bands (ev):

   -23.7661 -11.3251  -7.8646  -7.8350  -7.8162   0.2799   0.6069   0.6910
     6.3026   7.7333   8.6296   9.1904   9.4858  10.0278  12.3726  13.4656
    13.9551  14.2952  14.9395  15.2025  17.3827  17.3938  17.5844  19.0120

          k = 0.3400 0.3400 0.0000 (  5274 PWs)   bands (ev):

   -23.7659 -11.3253  -7.8662  -7.8352  -7.8157   0.2634   0.5994   0.6847
     6.3641   7.7320   8.6640   9.2480   9.5090  10.0889  12.2710  13.4818
    13.8594  14.3424  14.8333  15.1605  17.3451  17.3638  17.5513  19.0019

          k = 0.3500 0.3500 0.0000 (  5280 PWs)   bands (ev):

   -23.7658 -11.3255  -7.8679  -7.8355  -7.8153   0.2476   0.5921   0.6782
     6.4258   7.7320   8.6995   9.3057   9.5304  10.1508  12.1731  13.4839
    13.7639  14.4065  14.7289  15.1186  17.3053  17.3340  17.5185  18.9926

          k = 0.3600 0.3600 0.0000 (  5280 PWs)   bands (ev):

   -23.7656 -11.3256  -7.8697  -7.8357  -7.8149   0.2327   0.5851   0.6716
     6.4876   7.7332   8.7358   9.3630   9.5497  10.2136  12.0793  13.4745
    13.6686  14.4846  14.6268  15.0768  17.2634  17.3046  17.4863  18.9842

          k = 0.3700 0.3700 0.0000 (  5288 PWs)   bands (ev):

   -23.7654 -11.3257  -7.8715  -7.8361  -7.8147   0.2185   0.5783   0.6650
     6.5494   7.7358   8.7731   9.4197   9.5666  10.2771  11.9900  13.4565
    13.5736  14.5274  14.5738  15.0352  17.2196  17.2756  17.4545  18.9766

          k = 0.3800 0.3800 0.0000 (  5284 PWs)   bands (ev):

   -23.7652 -11.3257  -7.8733  -7.8364  -7.8145   0.2052   0.5718   0.6582
     6.6111   7.7396   8.8113   9.4751   9.5809  10.3413  11.9055  13.4324
    13.4789  14.4312  14.6714  14.9937  17.1743  17.2472  17.4235  18.9698

          k = 0.3900 0.3900 0.0000 (  5288 PWs)   bands (ev):

   -23.7651 -11.3257  -7.8752  -7.8368  -7.8143   0.1927   0.5656   0.6513
     6.6726   7.7448   8.8503   9.5275   9.5937  10.4061  11.8262  13.3847
    13.4040  14.3388  14.7755  14.9525  17.1276  17.2194  17.3931  18.9637

          k = 0.4000 0.4000 0.0000 (  5284 PWs)   bands (ev):

   -23.7649 -11.3256  -7.8771  -7.8372  -7.8143   0.1812   0.5596   0.6444
     6.7338   7.7513   8.8903   9.5687   9.6123  10.4713  11.7526  13.2910
    13.3726  14.2505  14.8845  14.9116  17.0799  17.1925  17.3636  18.9583

          k = 0.4100 0.4100 0.0000 (  5288 PWs)   bands (ev):

   -23.7647 -11.3255  -7.8790  -7.8377  -7.8143   0.1707   0.5540   0.6374
     6.7945   7.7592   8.9311   9.5835   9.6514  10.5370  11.6850  13.1978
    13.3392  14.1670  14.8711  14.9971  17.0313  17.1664  17.3350  18.9535

          k = 0.4200 0.4200 0.0000 (  5280 PWs)   bands (ev):

   -23.7646 -11.3253  -7.8810  -7.8382  -7.8145   0.1610   0.5487   0.6303
     6.8547   7.7683   8.9728   9.5830   9.6988  10.6031  11.6237  13.1051
    13.3045  14.0887  14.8310  15.1124  16.9824  17.1414  17.3073  18.9493

          k = 0.4300 0.4300 0.0000 (  5284 PWs)   bands (ev):

   -23.7644 -11.3250  -7.8830  -7.8388  -7.8147   0.1524   0.5438   0.6231
     6.9143   7.7789   9.0154   9.5753   9.7461  10.6694  11.5689  13.0131
    13.2691  14.0163  14.7913  15.2295  16.9335  17.1175  17.2808  18.9455

          k = 0.4400 0.4400 0.0000 (  5276 PWs)   bands (ev):

   -23.7643 -11.3247  -7.8850  -7.8394  -7.8150   0.1447   0.5392   0.6160
     6.9731   7.7908   9.0587   9.5617   9.7910  10.7358  11.5209  12.9218
    13.2331  13.9501  14.7521  15.3474  16.8853  17.0950  17.2555  18.9423

          k = 0.4500 0.4500 0.0000 (  5276 PWs)   bands (ev):

   -23.7641 -11.3243  -7.8871  -7.8400  -7.8154   0.1381   0.5350   0.6088
     7.0309   7.8040   9.1029   9.5426   9.8327  10.8022  11.4799  12.8313
    13.1970  13.8908  14.7134  15.4650  16.8386  17.0738  17.2314  18.9394

          k = 0.4600 0.4600 0.0000 (  5280 PWs)   bands (ev):

   -23.7640 -11.3239  -7.8892  -7.8407  -7.8158   0.1324   0.5311   0.6015
     7.0875   7.8186   9.1479   9.5186   9.8703  10.8686  11.4458  12.7416
    13.1609  13.8388  14.6753  15.5809  16.7947  17.0543  17.2087  18.9369

          k = 0.4700 0.4700 0.0000 (  5280 PWs)   bands (ev):

   -23.7638 -11.3234  -7.8913  -7.8414  -7.8164   0.1278   0.5276   0.5942
     7.1429   7.8346   9.1936   9.4899   9.9031  10.9348  11.4188  12.6528
    13.1249  13.7944  14.6379  15.6931  16.7554  17.0364  17.1874  18.9349

          k = 0.4800 0.4800 0.0000 (  5284 PWs)   bands (ev):

   -23.7637 -11.3229  -7.8934  -7.8422  -7.8171   0.1242   0.5245   0.5870
     7.1967   7.8518   9.2401   9.4572   9.9302  11.0007  11.3988  12.5650
    13.0890  13.7581  14.6011  15.7984  16.7239  17.0203  17.1678  18.9331

          k = 0.4900 0.4900 0.0000 (  5284 PWs)   bands (ev):

   -23.7636 -11.3223  -7.8955  -7.8430  -7.8178   0.1217   0.5218   0.5797
     7.2487   7.8704   9.2873   9.4211   9.9510  11.0661  11.3859  12.4783
    13.0535  13.7301  14.5650  15.8921  16.7048  17.0061  17.1497  18.9317

          k = 0.5000 0.5000 0.0000 (  5288 PWs)   bands (ev):

   -23.7634 -11.3216  -7.8977  -7.8438  -7.8187   0.1201   0.5195   0.5724
     7.2986   7.8904   9.3352   9.3823   9.9648  11.1308  11.3800  12.3928
    13.0182  13.7105  14.5297  15.9677  16.7045  16.9940  17.1335  18.9306

          k = 0.5100 0.5100 0.0000 (  5284 PWs)   bands (ev):

   -23.7633 -11.3209  -7.8998  -7.8447  -7.8196   0.1196   0.5175   0.5651
     7.3462   7.9116   9.3418   9.3838   9.9709  11.1947  11.3810  12.3087
    12.9833  13.6994  14.4951  16.0183  16.7298  16.9841  17.1190  18.9299

          k = 0.5200 0.5200 0.0000 (  5280 PWs)   bands (ev):

   -23.7632 -11.3201  -7.9020  -7.8456  -7.8207   0.1201   0.5160   0.5579
     7.3910   7.9342   9.3003   9.4331   9.9691  11.2573  11.3887  12.2263
    12.9487  13.6966  14.4614  16.0406  16.7840  16.9765  17.1065  18.9295

          k = 0.5300 0.5300 0.0000 (  5284 PWs)   bands (ev):

   -23.7631 -11.3192  -7.9042  -7.8466  -7.8218   0.1216   0.5148   0.5506
     7.4326   7.9580   9.2588   9.4830   9.9591  11.3183  11.4029  12.1460
    12.9144  13.7020  14.4285  16.0375  16.8643  16.9712  17.0961  18.9296

          k = 0.5400 0.5400 0.0000 (  5278 PWs)   bands (ev):

   -23.7629 -11.3183  -7.9064  -7.8476  -7.8230   0.1242   0.5141   0.5435
     7.4706   7.9831   9.2181   9.5334   9.9412  11.3768  11.4232  12.0684
    12.8805  13.7152  14.3966  16.0152  16.9641  16.9685  17.0877  18.9301

          k = 0.5500 0.5500 0.0000 (  5272 PWs)   bands (ev):

   -23.7628 -11.3173  -7.9086  -7.8486  -7.8243   0.1277   0.5137   0.5363
     7.5044   8.0095   9.1793   9.5845   9.9155  11.4317  11.4491  11.9948
    12.8468  13.7359  14.3656  15.9802  16.9683  17.0772  17.0816  18.9310

          k = 0.5600 0.5600 0.0000 (  5274 PWs)   bands (ev):

   -23.7627 -11.3163  -7.9108  -7.8497  -7.8256   0.1321   0.5137   0.5292
     7.5337   8.0370   9.1431   9.6360   9.8826  11.4800  11.4803  11.9276
    12.8134  13.7637  14.3356  15.9367  16.9709  17.0777  17.1990  18.9325

          k = 0.5700 0.5700 0.0000 (  5270 PWs)   bands (ev):

   -23.7626 -11.3153  -7.9130  -7.8508  -7.8271   0.1376   0.5140   0.5222
     7.5577   8.0659   9.1104   9.6881   9.8432  11.5152  11.5176  11.8720
    12.7802  13.7980  14.3066  15.8879  16.9761  17.0763  17.3266  18.9346

          k = 0.5800 0.5800 0.0000 (  5270 PWs)   bands (ev):

   -23.7625 -11.3141  -7.9152  -7.8519  -7.8286   0.1440   0.5147   0.5152
     7.5761   8.0959   9.0819   9.7406   9.7979  11.5340  11.5541  11.8374
    12.7473  13.8384  14.2787  15.8354  16.9843  17.0773  17.4578  18.9373

          k = 0.5900 0.5900 0.0000 (  5270 PWs)   bands (ev):

   -23.7624 -11.3130  -7.9174  -7.8530  -7.8302   0.1512   0.5083   0.5158
     7.5885   8.1270   9.0583   9.7476   9.7935  11.5205  11.5962  11.8326
    12.7144  13.8842  14.2520  15.7807  16.9953  17.0809  17.5914  18.9408

          k = 0.6000 0.6000 0.0000 (  5268 PWs)   bands (ev):

   -23.7624 -11.3118  -7.9196  -7.8542  -7.8318   0.1594   0.5015   0.5172
     7.5944   8.1594   9.0400   9.6932   9.8467  11.4806  11.6407  11.8544
    12.6817  13.9351  14.2263  15.7245  17.0092  17.0870  17.7263  18.9452

          k = 0.6100 0.6100 0.0000 (  5264 PWs)   bands (ev):

   -23.7623 -11.3105  -7.9218  -7.8554  -7.8336   0.1684   0.4948   0.5190
     7.5938   8.1928   9.0271   9.6354   9.9003  11.4255  11.6872  11.8914
    12.6490  13.9903  14.2020  15.6675  17.0261  17.0959  17.8618  18.9505

          k = 0.6200 0.6200 0.0000 (  5276 PWs)   bands (ev):

   -23.7622 -11.3092  -7.9240  -7.8566  -7.8353   0.1783   0.4882   0.5210
     7.5867   8.2274   9.0195   9.5752   9.9541  11.3633  11.7352  11.9353
    12.6163  14.0496  14.1788  15.6100  17.0460  17.1076  17.9971  18.9568

          k = 0.6300 0.6300 0.0000 (  5272 PWs)   bands (ev):

   -23.7621 -11.3079  -7.9262  -7.8579  -7.8372   0.1889   0.4817   0.5234
     7.5734   8.2630   9.0167   9.5136  10.0081  11.2981  11.7841  11.9821
    12.5835  14.1123  14.1570  15.5524  17.0688  17.1221  18.1316  18.9643

          k = 0.6400 0.6400 0.0000 (  5272 PWs)   bands (ev):

   -23.7621 -11.3065  -7.9283  -7.8591  -7.8390   0.2003   0.4753   0.5261
     7.5543   8.2996   9.0175   9.4519  10.0623  11.2319  11.8337  12.0299
    12.5506  14.1366  14.1781  15.4950  17.0946  17.1394  18.2648  18.9731

          k = 0.6500 0.6500 0.0000 (  5266 PWs)   bands (ev):

   -23.7620 -11.3052  -7.9304  -7.8604  -7.8409   0.2125   0.4690   0.5290
     7.5299   8.3373   9.0201   9.3922  10.1165  11.1655  11.8835  12.0775
    12.5175  14.1175  14.2465  15.4380  17.1233  17.1597  18.3959  18.9833

          k = 0.6600 0.6600 0.0000 (  5256 PWs)   bands (ev):

   -23.7620 -11.3037  -7.9325  -7.8617  -7.8429   0.2253   0.4628   0.5322
     7.5010   8.3759   9.0213   9.3374  10.1708  11.0997  11.9333  12.1245
    12.4842  14.0999  14.3170  15.3817  17.1549  17.1830  18.5244  18.9950

          k = 0.6700 0.6700 0.0000 (  5256 PWs)   bands (ev):

   -23.7619 -11.3023  -7.9346  -7.8629  -7.8449   0.2387   0.4567   0.5357
     7.4680   8.4155   9.0158   9.2926  10.2250  11.0346  11.9827  12.1704
    12.4506  14.0839  14.3894  15.3263  17.1892  17.2093  18.6495  19.0083

          k = 0.6800 0.6800 0.0000 (  5256 PWs)   bands (ev):

   -23.7619 -11.3008  -7.9366  -7.8642  -7.8469   0.2527   0.4508   0.5393
     7.4318   8.4560   8.9971   9.2641  10.2790  10.9707  12.0316  12.2150
    12.4165  14.0694  14.4632  15.2718  17.2263  17.2386  18.7704  18.8827

          k = 0.6900 0.6900 0.0000 (  5270 PWs)   bands (ev):

   -23.7618 -11.2994  -7.9387  -7.8655  -7.8489   0.2673   0.4450   0.5432
     7.3930   8.4973   8.9616   9.2553  10.3329  10.9079  12.0797  12.2583
    12.3821  14.0565  14.5381  15.2184  17.2659  17.2709  18.7555  18.8865

          k = 0.7000 0.7000 0.0000 (  5270 PWs)   bands (ev):

   -23.7618 -11.2979  -7.9406  -7.8668  -7.8509   0.2824   0.4394   0.5472
     7.3521   8.5394   8.9122   9.2629  10.3864  10.8465  12.1268  12.2999
    12.3472  14.0454  14.6138  15.1663  17.3063  17.3080  18.6294  18.9969

          k = 0.7100 0.7100 0.0000 (  5278 PWs)   bands (ev):

   -23.7617 -11.2964  -7.9426  -7.8681  -7.8530   0.2979   0.4339   0.5515
     7.3097   8.5823   8.8543   9.2814  10.4395  10.7865  12.1728  12.3118
    12.3400  14.0360  14.6899  15.1155  17.3447  17.3524  18.5042  19.0795

          k = 0.7200 0.7200 0.0000 (  5280 PWs)   bands (ev):

   -23.7617 -11.2949  -7.9445  -7.8694  -7.8550   0.3138   0.4285   0.5558
     7.2663   8.6259   8.7918   9.3065  10.4922  10.7280  12.2176  12.2758
    12.3783  14.0284  14.7661  15.0663  17.3862  17.3990  18.3802  19.1019

          k = 0.7300 0.7300 0.0000 (  5280 PWs)   bands (ev):

   -23.7617 -11.2935  -7.9464  -7.8706  -7.8571   0.3300   0.4233   0.5603
     7.2222   8.6702   8.7273   9.3358  10.5442  10.6711  12.2393  12.2611
    12.4149  14.0227  14.8420  15.0186  17.4306  17.4477  18.2573  19.1259

          k = 0.7400 0.7400 0.0000 (  5280 PWs)   bands (ev):

   -23.7616 -11.2920  -7.9482  -7.8719  -7.8591   0.3465   0.4183   0.5649
     7.1778   8.6619   8.7150   9.3677  10.5956  10.6158  12.2022  12.3031
    12.4498  14.0189  14.9174  14.9727  17.4780  17.4984  18.1358  19.1513

          k = 0.7500 0.7500 0.0000 (  5274 PWs)   bands (ev):

   -23.7616 -11.2905  -7.9500  -7.8731  -7.8611   0.3631   0.4134   0.5696
     7.1334   8.5967   8.7604   9.4012  10.5621  10.6462  12.1644  12.3436
    12.4830  14.0170  14.9284  14.9919  17.5283  17.5510  18.0155  19.1777

          k = 0.7600 0.7600 0.0000 (  5282 PWs)   bands (ev):

   -23.7616 -11.2891  -7.9517  -7.8743  -7.8631   0.3800   0.4087   0.5743
     7.0893   8.5322   8.8062   9.4356  10.5102  10.6958  12.1260  12.3826
    12.5144  14.0172  14.8860  15.0651  17.5814  17.6053  17.8968  19.2043

          k = 0.7700 0.7700 0.0000 (  5278 PWs)   bands (ev):

   -23.7616 -11.2876  -7.9534  -7.8755  -7.8651   0.3969   0.4041   0.5790
     7.0457   8.4687   8.8525   9.4705  10.4601  10.7445  12.0871  12.4199
    12.5440  14.0195  14.8455  15.1369  17.6373  17.6613  17.7795  19.2303

          k = 0.7800 0.7800 0.0000 (  5286 PWs)   bands (ev):

   -23.7616 -11.2862  -7.9550  -7.8767  -7.8670   0.3997   0.4138   0.5838
     7.0028   8.4066   8.8990   9.5056  10.4118  10.7920  12.0476  12.4557
    12.5720  14.0239  14.8068  15.2067  17.6639  17.6958  17.7189  19.2543

          k = 0.7900 0.7900 0.0000 (  5286 PWs)   bands (ev):

   -23.7616 -11.2848  -7.9566  -7.8778  -7.8689   0.3955   0.4306   0.5885
     6.9608   8.3461   8.9457   9.5404  10.3654  10.8383  12.0076  12.4898
    12.5983  14.0305  14.7702  15.2744  17.5501  17.7570  17.7782  19.2747

          k = 0.8000 0.8000 0.0000 (  5274 PWs)   bands (ev):

   -23.7615 -11.2835  -7.9581  -7.8789  -7.8707   0.3915   0.4474   0.5932
     6.9200   8.2875   8.9926   9.5748  10.3208  10.8833  11.9671  12.5223
    12.6229  14.0392  14.7355  15.3396  17.4381  17.8206  17.8390  19.2899

          k = 0.8100 0.8100 0.0000 (  5282 PWs)   bands (ev):

   -23.7615 -11.2822  -7.9595  -7.8800  -7.8725   0.3877   0.4639   0.5979
     6.8803   8.2308   9.0394   9.6085  10.2782  10.9267  11.9262  12.5531
    12.6460  14.0501  14.7027  15.4020  17.3281  17.8865  17.9013  19.2985

          k = 0.8200 0.8200 0.0000 (  5282 PWs)   bands (ev):

   -23.7615 -11.2809  -7.9609  -7.8811  -7.8742   0.3840   0.4801   0.6024
     6.8419   8.1764   9.0861   9.6414  10.2376  10.9686  11.8851  12.5823
    12.6674  14.0632  14.6720  15.4614  17.2203  17.9546  17.9651  19.3000

          k = 0.8300 0.8300 0.0000 (  5290 PWs)   bands (ev):

   -23.7615 -11.2797  -7.9623  -7.8820  -7.8759   0.3806   0.4960   0.6069
     6.8050   8.1242   9.1326   9.6733  10.1989  11.0088  11.8439  12.6099
    12.6874  14.0784  14.6432  15.5175  17.1148  18.0248  18.0303  19.2949

          k = 0.8400 0.8400 0.0000 (  5286 PWs)   bands (ev):

   -23.7615 -11.2785  -7.9635  -7.8830  -7.8775   0.3773   0.5115   0.6113
     6.7696   8.0744   9.1786   9.7040  10.1623  11.0472  11.8026  12.6358
    12.7058  14.0956  14.6163  15.5701  17.0118  18.0967  18.0969  19.2847

          k = 0.8500 0.8500 0.0000 (  5284 PWs)   bands (ev):

   -23.7615 -11.2774  -7.9647  -7.8839  -7.8790   0.3742   0.5265   0.6154
     6.7359   8.0272   9.2240   9.7335  10.1277  11.0837  11.7616  12.6602
    12.7229  14.1149  14.5914  15.6192  16.9115  18.1641  18.1706  19.2713

          k = 0.8600 0.8600 0.0000 (  5284 PWs)   bands (ev):

   -23.7615 -11.2763  -7.9659  -7.8848  -7.8805   0.3713   0.5409   0.6195
     6.7040   7.9826   9.2687   9.7616  10.0952  11.1183  11.7209  12.6829
    12.7386  14.1359  14.5684  15.6645  16.8141  18.2321  18.2458  19.2565

          k = 0.8700 0.8700 0.0000 (  5282 PWs)   bands (ev):

   -23.7615 -11.2753  -7.9669  -7.8856  -7.8819   0.3686   0.5547   0.6233
     6.6739   7.9407   9.3123   9.7882  10.0649  11.1507  11.6808  12.7041
    12.7529  14.1587  14.5473  15.7060  16.7199  18.3002  18.3221  19.2418

          k = 0.8800 0.8800 0.0000 (  5282 PWs)   bands (ev):

   -23.7615 -11.2743  -7.9679  -7.8863  -7.8832   0.3660   0.5677   0.6270
     6.6457   7.9017   9.3547   9.8132  10.0367  11.1810  11.6416  12.7237
    12.7660  14.1830  14.5279  15.7438  16.6292  18.3678  18.3993  19.2287

          k = 0.8900 0.8900 0.0000 (  5292 PWs)   bands (ev):

   -23.7615 -11.2735  -7.9688  -7.8871  -7.8844   0.3637   0.5801   0.6304
     6.6194   7.8655   9.3957   9.8365  10.0106  11.2091  11.6035  12.7417
    12.7778  14.2084  14.5104  15.7778  16.5424  18.4337  18.4770  19.2186

          k = 0.9000 0.9000 0.0000 (  5290 PWs)   bands (ev):

   -23.7615 -11.2726  -7.9697  -7.8877  -7.8855   0.3616   0.5915   0.6336
     6.5952   7.8322   9.4348   9.8580   9.9867  11.2349  11.5668  12.7582
    12.7884  14.2347  14.4945  15.8082  16.4599  18.4969  18.5548  19.2127

          k = 0.9100 0.9100 0.0000 (  5292 PWs)   bands (ev):

   -23.7615 -11.2719  -7.9704  -7.8883  -7.8865   0.3597   0.6021   0.6365
     6.5732   7.8019   9.4719   9.8778   9.9651  11.2584  11.5319  12.7731
    12.7979  14.2615  14.4804  15.8350  16.3821  18.5559  18.6322  19.2121

          k = 0.9200 0.9200 0.0000 (  5292 PWs)   bands (ev):

   -23.7615 -11.2712  -7.9711  -7.8888  -7.8874   0.3580   0.6118   0.6391
     6.5532   7.7747   9.5065   9.8956   9.9457  11.2795  11.4991  12.7865
    12.8063  14.2882  14.4679  15.8584  16.3096  18.6090  18.7084  19.2179

          k = 0.9300 0.9300 0.0000 (  5294 PWs)   bands (ev):

   -23.7615 -11.2706  -7.9717  -7.8893  -7.8882   0.3564   0.6204   0.6415
     6.5355   7.7506   9.5383   9.9114   9.9285  11.2982  11.4689  12.7983
    12.8136  14.3143  14.4569  15.8785  16.2430  18.6548  18.7825  19.2306

          k = 0.9400 0.9400 0.0000 (  5292 PWs)   bands (ev):

   -23.7615 -11.2701  -7.9722  -7.8897  -7.8889   0.3551   0.6280   0.6436
     6.5201   7.7296   9.5670   9.9135   9.9253  11.3144  11.4416  12.8085
    12.8199  14.3392  14.4476  15.8956  16.1830  18.6923  18.8535  19.2501

          k = 0.9500 0.9500 0.0000 (  5288 PWs)   bands (ev):

   -23.7615 -11.2696  -7.9727  -7.8901  -7.8895   0.3540   0.6345   0.6454
     6.5070   7.7118   9.5921   9.9009   9.9371  11.3282  11.4176  12.8172
    12.8252  14.3621  14.4397  15.9097  16.1303  18.7215  18.9199  19.2749

          k = 0.9600 0.9600 0.0000 (  5288 PWs)   bands (ev):

   -23.7615 -11.2693  -7.9731  -7.8904  -7.8900   0.3531   0.6398   0.6469
     6.4962   7.6972   9.6132   9.8905   9.9468  11.3395  11.3973  12.8243
    12.8294  14.3824  14.4333  15.9210  16.0857  18.7429  18.9798  19.3024

          k = 0.9700 0.9700 0.0000 (  5300 PWs)   bands (ev):

   -23.7615 -11.2690  -7.9733  -7.8906  -7.8904   0.3524   0.6440   0.6480
     6.4877   7.6858   9.6301   9.8825   9.9544  11.3483  11.3811  12.8298
    12.8327  14.3991  14.4284  15.9296  16.0500  18.7577  19.0309  19.3294

          k = 0.9800 0.9800 0.0000 (  5304 PWs)   bands (ev):

   -23.7615 -11.2688  -7.9736  -7.8908  -7.8907   0.3519   0.6471   0.6488
     6.4817   7.6776   9.6424   9.8767   9.9598  11.3546  11.3692  12.8338
    12.8351  14.4116  14.4249  15.9357  16.0238  18.7672  19.0704  19.3520

          k = 0.9900 0.9900 0.0000 (  5308 PWs)   bands (ev):

   -23.7615 -11.2686  -7.9737  -7.8909  -7.8908   0.3516   0.6489   0.6493
     6.4781   7.6727   9.6498   9.8732   9.9631  11.3584  11.3621  12.8361
    12.8365  14.4194  14.4228  15.9394  16.0079  18.7725  19.0955  19.3672

          k = 1.0000 1.0000 0.0000 (  5290 PWs)   bands (ev):

   -23.7615 -11.2686  -7.9737  -7.8909  -7.8909   0.3515   0.6495   0.6495
     6.4769   7.6711   9.6523   9.8721   9.9641  11.3596  11.3596  12.8369
    12.8369  14.4221  14.4221  15.9406  16.0025  18.7742  19.1042  19.3725

     Writing output data file ./rbbr.save/
 
     init_run     :      0.53s CPU      0.63s WALL (       1 calls)
     electrons    :      6.60s CPU      6.75s WALL (       1 calls)

     Called by init_run:
     wfcinit      :      0.00s CPU      0.02s WALL (       1 calls)
     wfcinit:atom :      0.00s CPU      0.00s WALL (       3 calls)
     wfcinit:wfcr :      0.17s CPU      0.18s WALL (       3 calls)
     potinit      :      0.15s CPU      0.20s WALL (       1 calls)
     hinit0       :      0.35s CPU      0.37s WALL (       1 calls)

     Called by electrons:
     c_bands      :      6.60s CPU      6.75s WALL (       1 calls)
     v_of_rho     :      0.05s CPU      0.07s WALL (       1 calls)
     v_h          :      0.00s CPU      0.00s WALL (       1 calls)
     v_xc         :      0.05s CPU      0.07s WALL (       1 calls)
     newd         :      0.00s CPU      0.01s WALL (       1 calls)
     PAW_pot      :      0.04s CPU      0.04s WALL (       1 calls)

     Called by c_bands:
     init_us_2    :      0.00s CPU      0.01s WALL (       3 calls)
     cegterg      :      6.12s CPU      6.25s WALL (      10 calls)

     Called by sum_band:

     Called by *egterg:
     cdiaghg      :      0.13s CPU      0.14s WALL (     190 calls)
     cegterg:over :      0.31s CPU      0.31s WALL (     187 calls)
     cegterg:upda :      0.27s CPU      0.28s WALL (     187 calls)
     cegterg:last :      0.60s CPU      0.61s WALL (      99 calls)
     h_psi        :      4.70s CPU      4.79s WALL (     200 calls)
     s_psi        :      0.14s CPU      0.14s WALL (     200 calls)
     g_psi        :      0.03s CPU      0.03s WALL (     187 calls)

     Called by h_psi:
     h_psi:calbec :      0.11s CPU      0.11s WALL (     200 calls)
     vloc_psi     :      4.39s CPU      4.46s WALL (     200 calls)
     add_vuspsi   :      0.16s CPU      0.17s WALL (     200 calls)

     General routines
     calbec       :      0.11s CPU      0.11s WALL (     200 calls)
     fft          :      0.01s CPU      0.03s WALL (      12 calls)
     fftw         :      3.55s CPU      3.60s WALL (    4442 calls)
     davcio       :      0.00s CPU      0.01s WALL (       6 calls)
 
     Parallel routines

     PAW routines
     PAW_pot      :      0.04s CPU      0.04s WALL (       1 calls)
 
     PWSCF        :      8.15s CPU      8.61s WALL

 
   This run was terminated on:  12: 6:29  23Jun2022            

=------------------------------------------------------------------------------=
   JOB DONE.
=------------------------------------------------------------------------------=
