
     Program PWSCF v.6.6 starts on 23Jun2022 at 12: 5:44 

     This program is part of the open-source Quantum ESPRESSO suite
     for quantum simulation of materials; please cite
         "P. Giannozzi et al., J. Phys.:Condens. Matter 21 395502 (2009);
         "P. Giannozzi et al., J. Phys.:Condens. Matter 29 465901 (2017);
          URL http://www.quantum-espresso.org", 
     in publications or presentations arising from this work. More details at
     http://www.quantum-espresso.org/quote

     Parallel version (MPI), running on    40 processors

     MPI processes distributed on     1 nodes
     K-points division:     npool     =      40
     Fft bands division:     nmany     =       1
     Waiting for input...
     Reading input from standard input
Warning: card &IONS ignored
Warning: card / ignored
Warning: card &CELL ignored
Warning: card PRESS_CONV_THR=0.1 ignored
Warning: card / ignored

     Current dimensions of program PWSCF are:
     Max number of different atomic species (ntypx) = 10
     Max number of k-points (npk) =  40000
     Max angular momentum in pseudopotentials (lmaxx) =  3

     Atomic positions and unit cell read from directory:
     ./rbbr.save/
     Atomic positions from file used, from input discarded
 
     file Rb.pbe-spn-kjpaw_psl.1.0.0.UPF: wavefunction(s)  4S renormalized
     file Br.pbe-n-kjpaw_psl.1.0.0.UPF: wavefunction(s)  4S 4P renormalized

     Subspace diagonalization in iterative solution of the eigenvalue problem:
     a serial algorithm will be used

 
     G-vector sticks info
     --------------------
     sticks:   dense  smooth     PW     G-vecs:    dense   smooth      PW
     Sum        1597    1597    439                42087    42087    6231
 


     bravais-lattice index     =            2
     lattice parameter (alat)  =      13.2560  a.u.
     unit-cell volume          =     582.3356 (a.u.)^3
     number of atoms/cell      =            2
     number of atomic types    =            2
     number of electrons       =        16.00
     number of Kohn-Sham states=           24
     kinetic-energy cutoff     =      66.0000  Ry
     charge density cutoff     =     264.0000  Ry
     Exchange-correlation= SLA PW PBX PBC
                           (   1   4   3   4   0   0   0)

     celldm(1)=  13.255958  celldm(2)=   0.000000  celldm(3)=   0.000000
     celldm(4)=   0.000000  celldm(5)=   0.000000  celldm(6)=   0.000000

     crystal axes: (cart. coord. in units of alat)
               a(1) = (  -0.500000   0.000000   0.500000 )  
               a(2) = (   0.000000   0.500000   0.500000 )  
               a(3) = (  -0.500000   0.500000   0.000000 )  

     reciprocal axes: (cart. coord. in units 2 pi/alat)
               b(1) = ( -1.000000 -1.000000  1.000000 )  
               b(2) = (  1.000000  1.000000  1.000000 )  
               b(3) = ( -1.000000  1.000000 -1.000000 )  


     PseudoPot. # 1 for Rb read from file:
     /scratch1/fanchem/RbBr/pp/Rb.pbe-spn-kjpaw_psl.1.0.0.UPF
     MD5 check sum: a11e6fb9d11e64d6427b9eb26aa4a0b1
     Pseudo is Projector augmented-wave + core cor, Zval =  9.0
     Generated using "atomic" code by A. Dal Corso v.6.2.2
     Shape of augmentation charge: PSQ
     Using radial grid of 1219 points,  6 beta functions with: 
                l(1) =   0
                l(2) =   0
                l(3) =   1
                l(4) =   1
                l(5) =   2
                l(6) =   2
     Q(r) pseudized with 0 coefficients 


     PseudoPot. # 2 for Br read from file:
     /scratch1/fanchem/RbBr/pp/Br.pbe-n-kjpaw_psl.1.0.0.UPF
     MD5 check sum: b00de77caabc69c0a6b76eb37264f235
     Pseudo is Projector augmented-wave + core cor, Zval =  7.0
     Generated using "atomic" code by A. Dal Corso v.6.3
     Shape of augmentation charge: PSQ
     Using radial grid of 1213 points,  4 beta functions with: 
                l(1) =   0
                l(2) =   0
                l(3) =   1
                l(4) =   1
     Q(r) pseudized with 0 coefficients 


     atomic species   valence    mass     pseudopotential
        Rb             9.00    85.46780     Rb( 1.00)
        Br             7.00    79.90400     Br( 1.00)

     48 Sym. Ops., with inversion, found


                                    s                        frac. trans.

      isym =  1     identity                                     

 cryst.   s( 1) = (     1          0          0      )
                  (     0          1          0      )
                  (     0          0          1      )

 cart.    s( 1) = (  1.0000000  0.0000000  0.0000000 )
                  (  0.0000000  1.0000000  0.0000000 )
                  (  0.0000000  0.0000000  1.0000000 )


      isym =  2     180 deg rotation - cart. axis [0,0,1]        

 cryst.   s( 2) = (     0          1         -1      )
                  (     1          0         -1      )
                  (     0          0         -1      )

 cart.    s( 2) = ( -1.0000000  0.0000000  0.0000000 )
                  (  0.0000000 -1.0000000  0.0000000 )
                  (  0.0000000  0.0000000  1.0000000 )


      isym =  3     180 deg rotation - cart. axis [0,1,0]        

 cryst.   s( 3) = (    -1          0          0      )
                  (    -1          0          1      )
                  (    -1          1          0      )

 cart.    s( 3) = ( -1.0000000  0.0000000  0.0000000 )
                  (  0.0000000  1.0000000  0.0000000 )
                  (  0.0000000  0.0000000 -1.0000000 )


      isym =  4     180 deg rotation - cart. axis [1,0,0]        

 cryst.   s( 4) = (     0         -1          1      )
                  (     0         -1          0      )
                  (     1         -1          0      )

 cart.    s( 4) = (  1.0000000  0.0000000  0.0000000 )
                  (  0.0000000 -1.0000000  0.0000000 )
                  (  0.0000000  0.0000000 -1.0000000 )


      isym =  5     180 deg rotation - cart. axis [1,1,0]        

 cryst.   s( 5) = (     0         -1          0      )
                  (    -1          0          0      )
                  (     0          0         -1      )

 cart.    s( 5) = (  0.0000000  1.0000000  0.0000000 )
                  (  1.0000000  0.0000000  0.0000000 )
                  (  0.0000000  0.0000000 -1.0000000 )


      isym =  6     180 deg rotation - cart. axis [1,-1,0]       

 cryst.   s( 6) = (    -1          0          1      )
                  (     0         -1          1      )
                  (     0          0          1      )

 cart.    s( 6) = (  0.0000000 -1.0000000  0.0000000 )
                  ( -1.0000000  0.0000000  0.0000000 )
                  (  0.0000000  0.0000000 -1.0000000 )


      isym =  7      90 deg rotation - cart. axis [0,0,-1]       

 cryst.   s( 7) = (     0          1          0      )
                  (     0          1         -1      )
                  (    -1          1          0      )

 cart.    s( 7) = (  0.0000000  1.0000000  0.0000000 )
                  ( -1.0000000  0.0000000  0.0000000 )
                  (  0.0000000  0.0000000  1.0000000 )


      isym =  8      90 deg rotation - cart. axis [0,0,1]        

 cryst.   s( 8) = (     1          0         -1      )
                  (     1          0          0      )
                  (     1         -1          0      )

 cart.    s( 8) = (  0.0000000 -1.0000000  0.0000000 )
                  (  1.0000000  0.0000000  0.0000000 )
                  (  0.0000000  0.0000000  1.0000000 )


      isym =  9     180 deg rotation - cart. axis [1,0,1]        

 cryst.   s( 9) = (    -1          0          0      )
                  (     0          0         -1      )
                  (     0         -1          0      )

 cart.    s( 9) = (  0.0000000  0.0000000  1.0000000 )
                  (  0.0000000 -1.0000000  0.0000000 )
                  (  1.0000000  0.0000000  0.0000000 )


      isym = 10     180 deg rotation - cart. axis [-1,0,1]       

 cryst.   s(10) = (     1          0          0      )
                  (     1         -1          0      )
                  (     1          0         -1      )

 cart.    s(10) = (  0.0000000  0.0000000 -1.0000000 )
                  (  0.0000000 -1.0000000  0.0000000 )
                  ( -1.0000000  0.0000000  0.0000000 )


      isym = 11      90 deg rotation - cart. axis [0,1,0]        

 cryst.   s(11) = (     0          1         -1      )
                  (    -1          1          0      )
                  (     0          1          0      )

 cart.    s(11) = (  0.0000000  0.0000000  1.0000000 )
                  (  0.0000000  1.0000000  0.0000000 )
                  ( -1.0000000  0.0000000  0.0000000 )


      isym = 12      90 deg rotation - cart. axis [0,-1,0]       

 cryst.   s(12) = (     0         -1          1      )
                  (     0          0          1      )
                  (    -1          0          1      )

 cart.    s(12) = (  0.0000000  0.0000000 -1.0000000 )
                  (  0.0000000  1.0000000  0.0000000 )
                  (  1.0000000  0.0000000  0.0000000 )


      isym = 13     180 deg rotation - cart. axis [0,1,1]        

 cryst.   s(13) = (    -1          1          0      )
                  (     0          1          0      )
                  (     0          1         -1      )

 cart.    s(13) = ( -1.0000000  0.0000000  0.0000000 )
                  (  0.0000000  0.0000000  1.0000000 )
                  (  0.0000000  1.0000000  0.0000000 )


      isym = 14     180 deg rotation - cart. axis [0,1,-1]       

 cryst.   s(14) = (     0          0         -1      )
                  (     0         -1          0      )
                  (    -1          0          0      )

 cart.    s(14) = ( -1.0000000  0.0000000  0.0000000 )
                  (  0.0000000  0.0000000 -1.0000000 )
                  (  0.0000000 -1.0000000  0.0000000 )


      isym = 15      90 deg rotation - cart. axis [-1,0,0]       

 cryst.   s(15) = (     0          0          1      )
                  (    -1          0          1      )
                  (     0         -1          1      )

 cart.    s(15) = (  1.0000000  0.0000000  0.0000000 )
                  (  0.0000000  0.0000000  1.0000000 )
                  (  0.0000000 -1.0000000  0.0000000 )


      isym = 16      90 deg rotation - cart. axis [1,0,0]        

 cryst.   s(16) = (     1         -1          0      )
                  (     1          0         -1      )
                  (     1          0          0      )

 cart.    s(16) = (  1.0000000  0.0000000  0.0000000 )
                  (  0.0000000  0.0000000 -1.0000000 )
                  (  0.0000000  1.0000000  0.0000000 )


      isym = 17     120 deg rotation - cart. axis [-1,-1,-1]     

 cryst.   s(17) = (    -1          0          1      )
                  (    -1          1          0      )
                  (    -1          0          0      )

 cart.    s(17) = (  0.0000000  1.0000000  0.0000000 )
                  (  0.0000000  0.0000000  1.0000000 )
                  (  1.0000000  0.0000000  0.0000000 )


      isym = 18     120 deg rotation - cart. axis [-1,1,1]       

 cryst.   s(18) = (     0          1          0      )
                  (     0          0          1      )
                  (     1          0          0      )

 cart.    s(18) = (  0.0000000 -1.0000000  0.0000000 )
                  (  0.0000000  0.0000000  1.0000000 )
                  ( -1.0000000  0.0000000  0.0000000 )


      isym = 19     120 deg rotation - cart. axis [1,1,-1]       

 cryst.   s(19) = (     1          0         -1      )
                  (     0          0         -1      )
                  (     0          1         -1      )

 cart.    s(19) = (  0.0000000  1.0000000  0.0000000 )
                  (  0.0000000  0.0000000 -1.0000000 )
                  ( -1.0000000  0.0000000  0.0000000 )


      isym = 20     120 deg rotation - cart. axis [1,-1,1]       

 cryst.   s(20) = (     0         -1          0      )
                  (     1         -1          0      )
                  (     0         -1          1      )

 cart.    s(20) = (  0.0000000 -1.0000000  0.0000000 )
                  (  0.0000000  0.0000000 -1.0000000 )
                  (  1.0000000  0.0000000  0.0000000 )


      isym = 21     120 deg rotation - cart. axis [1,1,1]        

 cryst.   s(21) = (     0          0         -1      )
                  (     0          1         -1      )
                  (     1          0         -1      )

 cart.    s(21) = (  0.0000000  0.0000000  1.0000000 )
                  (  1.0000000  0.0000000  0.0000000 )
                  (  0.0000000  1.0000000  0.0000000 )


      isym = 22     120 deg rotation - cart. axis [-1,1,-1]      

 cryst.   s(22) = (    -1          1          0      )
                  (    -1          0          0      )
                  (    -1          0          1      )

 cart.    s(22) = (  0.0000000  0.0000000  1.0000000 )
                  ( -1.0000000  0.0000000  0.0000000 )
                  (  0.0000000 -1.0000000  0.0000000 )


      isym = 23     120 deg rotation - cart. axis [1,-1,-1]      

 cryst.   s(23) = (     0          0          1      )
                  (     1          0          0      )
                  (     0          1          0      )

 cart.    s(23) = (  0.0000000  0.0000000 -1.0000000 )
                  ( -1.0000000  0.0000000  0.0000000 )
                  (  0.0000000  1.0000000  0.0000000 )


      isym = 24     120 deg rotation - cart. axis [-1,-1,1]      

 cryst.   s(24) = (     1         -1          0      )
                  (     0         -1          1      )
                  (     0         -1          0      )

 cart.    s(24) = (  0.0000000  0.0000000 -1.0000000 )
                  (  1.0000000  0.0000000  0.0000000 )
                  (  0.0000000 -1.0000000  0.0000000 )


      isym = 25     inversion                                    

 cryst.   s(25) = (    -1          0          0      )
                  (     0         -1          0      )
                  (     0          0         -1      )

 cart.    s(25) = ( -1.0000000  0.0000000  0.0000000 )
                  (  0.0000000 -1.0000000  0.0000000 )
                  (  0.0000000  0.0000000 -1.0000000 )


      isym = 26     inv. 180 deg rotation - cart. axis [0,0,1]   

 cryst.   s(26) = (     0         -1          1      )
                  (    -1          0          1      )
                  (     0          0          1      )

 cart.    s(26) = (  1.0000000  0.0000000  0.0000000 )
                  (  0.0000000  1.0000000  0.0000000 )
                  (  0.0000000  0.0000000 -1.0000000 )


      isym = 27     inv. 180 deg rotation - cart. axis [0,1,0]   

 cryst.   s(27) = (     1          0          0      )
                  (     1          0         -1      )
                  (     1         -1          0      )

 cart.    s(27) = (  1.0000000  0.0000000  0.0000000 )
                  (  0.0000000 -1.0000000  0.0000000 )
                  (  0.0000000  0.0000000  1.0000000 )


      isym = 28     inv. 180 deg rotation - cart. axis [1,0,0]   

 cryst.   s(28) = (     0          1         -1      )
                  (     0          1          0      )
                  (    -1          1          0      )

 cart.    s(28) = ( -1.0000000  0.0000000  0.0000000 )
                  (  0.0000000  1.0000000  0.0000000 )
                  (  0.0000000  0.0000000  1.0000000 )


      isym = 29     inv. 180 deg rotation - cart. axis [1,1,0]   

 cryst.   s(29) = (     0          1          0      )
                  (     1          0          0      )
                  (     0          0          1      )

 cart.    s(29) = (  0.0000000 -1.0000000  0.0000000 )
                  ( -1.0000000  0.0000000  0.0000000 )
                  (  0.0000000  0.0000000  1.0000000 )


      isym = 30     inv. 180 deg rotation - cart. axis [1,-1,0]  

 cryst.   s(30) = (     1          0         -1      )
                  (     0          1         -1      )
                  (     0          0         -1      )

 cart.    s(30) = (  0.0000000  1.0000000  0.0000000 )
                  (  1.0000000  0.0000000  0.0000000 )
                  (  0.0000000  0.0000000  1.0000000 )


      isym = 31     inv.  90 deg rotation - cart. axis [0,0,-1]  

 cryst.   s(31) = (     0         -1          0      )
                  (     0         -1          1      )
                  (     1         -1          0      )

 cart.    s(31) = (  0.0000000 -1.0000000  0.0000000 )
                  (  1.0000000  0.0000000  0.0000000 )
                  (  0.0000000  0.0000000 -1.0000000 )


      isym = 32     inv.  90 deg rotation - cart. axis [0,0,1]   

 cryst.   s(32) = (    -1          0          1      )
                  (    -1          0          0      )
                  (    -1          1          0      )

 cart.    s(32) = (  0.0000000  1.0000000  0.0000000 )
                  ( -1.0000000  0.0000000  0.0000000 )
                  (  0.0000000  0.0000000 -1.0000000 )


      isym = 33     inv. 180 deg rotation - cart. axis [1,0,1]   

 cryst.   s(33) = (     1          0          0      )
                  (     0          0          1      )
                  (     0          1          0      )

 cart.    s(33) = (  0.0000000  0.0000000 -1.0000000 )
                  (  0.0000000  1.0000000  0.0000000 )
                  ( -1.0000000  0.0000000  0.0000000 )


      isym = 34     inv. 180 deg rotation - cart. axis [-1,0,1]  

 cryst.   s(34) = (    -1          0          0      )
                  (    -1          1          0      )
                  (    -1          0          1      )

 cart.    s(34) = (  0.0000000  0.0000000  1.0000000 )
                  (  0.0000000  1.0000000  0.0000000 )
                  (  1.0000000  0.0000000  0.0000000 )


      isym = 35     inv.  90 deg rotation - cart. axis [0,1,0]   

 cryst.   s(35) = (     0         -1          1      )
                  (     1         -1          0      )
                  (     0         -1          0      )

 cart.    s(35) = (  0.0000000  0.0000000 -1.0000000 )
                  (  0.0000000 -1.0000000  0.0000000 )
                  (  1.0000000  0.0000000  0.0000000 )


      isym = 36     inv.  90 deg rotation - cart. axis [0,-1,0]  

 cryst.   s(36) = (     0          1         -1      )
                  (     0          0         -1      )
                  (     1          0         -1      )

 cart.    s(36) = (  0.0000000  0.0000000  1.0000000 )
                  (  0.0000000 -1.0000000  0.0000000 )
                  ( -1.0000000  0.0000000  0.0000000 )


      isym = 37     inv. 180 deg rotation - cart. axis [0,1,1]   

 cryst.   s(37) = (     1         -1          0      )
                  (     0         -1          0      )
                  (     0         -1          1      )

 cart.    s(37) = (  1.0000000  0.0000000  0.0000000 )
                  (  0.0000000  0.0000000 -1.0000000 )
                  (  0.0000000 -1.0000000  0.0000000 )


      isym = 38     inv. 180 deg rotation - cart. axis [0,1,-1]  

 cryst.   s(38) = (     0          0          1      )
                  (     0          1          0      )
                  (     1          0          0      )

 cart.    s(38) = (  1.0000000  0.0000000  0.0000000 )
                  (  0.0000000  0.0000000  1.0000000 )
                  (  0.0000000  1.0000000  0.0000000 )


      isym = 39     inv.  90 deg rotation - cart. axis [-1,0,0]  

 cryst.   s(39) = (     0          0         -1      )
                  (     1          0         -1      )
                  (     0          1         -1      )

 cart.    s(39) = ( -1.0000000  0.0000000  0.0000000 )
                  (  0.0000000  0.0000000 -1.0000000 )
                  (  0.0000000  1.0000000  0.0000000 )


      isym = 40     inv.  90 deg rotation - cart. axis [1,0,0]   

 cryst.   s(40) = (    -1          1          0      )
                  (    -1          0          1      )
                  (    -1          0          0      )

 cart.    s(40) = ( -1.0000000  0.0000000  0.0000000 )
                  (  0.0000000  0.0000000  1.0000000 )
                  (  0.0000000 -1.0000000  0.0000000 )


      isym = 41     inv. 120 deg rotation - cart. axis [-1,-1,-1]

 cryst.   s(41) = (     1          0         -1      )
                  (     1         -1          0      )
                  (     1          0          0      )

 cart.    s(41) = (  0.0000000 -1.0000000  0.0000000 )
                  (  0.0000000  0.0000000 -1.0000000 )
                  ( -1.0000000  0.0000000  0.0000000 )


      isym = 42     inv. 120 deg rotation - cart. axis [-1,1,1]  

 cryst.   s(42) = (     0         -1          0      )
                  (     0          0         -1      )
                  (    -1          0          0      )

 cart.    s(42) = (  0.0000000  1.0000000  0.0000000 )
                  (  0.0000000  0.0000000 -1.0000000 )
                  (  1.0000000  0.0000000  0.0000000 )


      isym = 43     inv. 120 deg rotation - cart. axis [1,1,-1]  

 cryst.   s(43) = (    -1          0          1      )
                  (     0          0          1      )
                  (     0         -1          1      )

 cart.    s(43) = (  0.0000000 -1.0000000  0.0000000 )
                  (  0.0000000  0.0000000  1.0000000 )
                  (  1.0000000  0.0000000  0.0000000 )


      isym = 44     inv. 120 deg rotation - cart. axis [1,-1,1]  

 cryst.   s(44) = (     0          1          0      )
                  (    -1          1          0      )
                  (     0          1         -1      )

 cart.    s(44) = (  0.0000000  1.0000000  0.0000000 )
                  (  0.0000000  0.0000000  1.0000000 )
                  ( -1.0000000  0.0000000  0.0000000 )


      isym = 45     inv. 120 deg rotation - cart. axis [1,1,1]   

 cryst.   s(45) = (     0          0          1      )
                  (     0         -1          1      )
                  (    -1          0          1      )

 cart.    s(45) = (  0.0000000  0.0000000 -1.0000000 )
                  ( -1.0000000  0.0000000  0.0000000 )
                  (  0.0000000 -1.0000000  0.0000000 )


      isym = 46     inv. 120 deg rotation - cart. axis [-1,1,-1] 

 cryst.   s(46) = (     1         -1          0      )
                  (     1          0          0      )
                  (     1          0         -1      )

 cart.    s(46) = (  0.0000000  0.0000000 -1.0000000 )
                  (  1.0000000  0.0000000  0.0000000 )
                  (  0.0000000  1.0000000  0.0000000 )


      isym = 47     inv. 120 deg rotation - cart. axis [1,-1,-1] 

 cryst.   s(47) = (     0          0         -1      )
                  (    -1          0          0      )
                  (     0         -1          0      )

 cart.    s(47) = (  0.0000000  0.0000000  1.0000000 )
                  (  1.0000000  0.0000000  0.0000000 )
                  (  0.0000000 -1.0000000  0.0000000 )


      isym = 48     inv. 120 deg rotation - cart. axis [-1,-1,1] 

 cryst.   s(48) = (    -1          1          0      )
                  (     0          1         -1      )
                  (     0          1          0      )

 cart.    s(48) = (  0.0000000  0.0000000  1.0000000 )
                  ( -1.0000000  0.0000000  0.0000000 )
                  (  0.0000000  1.0000000  0.0000000 )


     point group O_h (m-3m) 
     there are 10 classes
     the character table:

       E     8C3   3C2   6C4   6C2'  i     8S6   3s_h  6S4   6s_d 
A_1g   1.00  1.00  1.00  1.00  1.00  1.00  1.00  1.00  1.00  1.00
A_2g   1.00  1.00  1.00 -1.00 -1.00  1.00  1.00  1.00 -1.00 -1.00
E_g    2.00 -1.00  2.00  0.00  0.00  2.00 -1.00  2.00  0.00  0.00
T_1g   3.00  0.00 -1.00  1.00 -1.00  3.00  0.00 -1.00  1.00 -1.00
T_2g   3.00  0.00 -1.00 -1.00  1.00  3.00  0.00 -1.00 -1.00  1.00
A_1u   1.00  1.00  1.00  1.00  1.00 -1.00 -1.00 -1.00 -1.00 -1.00
A_2u   1.00  1.00  1.00 -1.00 -1.00 -1.00 -1.00 -1.00  1.00  1.00
E_u    2.00 -1.00  2.00  0.00  0.00 -2.00  1.00 -2.00  0.00  0.00
T_1u   3.00  0.00 -1.00  1.00 -1.00 -3.00  0.00  1.00 -1.00  1.00
T_2u   3.00  0.00 -1.00 -1.00  1.00 -3.00  0.00  1.00  1.00 -1.00

     the symmetry operations in each class and the name of the first element:

     E        1
          identity                                               
     8C3     17   19   20   18   24   21   22   23
          120 deg rotation - cart. axis [-1,-1,-1]               
     3C2      2    4    3
          180 deg rotation - cart. axis [0,0,1]                  
     6C4      7    8   15   16   12   11
           90 deg rotation - cart. axis [0,0,-1]                 
     6C2'     5    6   14   13   10    9
          180 deg rotation - cart. axis [1,1,0]                  
     i       25
          inversion                                              
     8S6     41   43   44   42   48   45   46   47
          inv. 120 deg rotation - cart. axis [-1,-1,-1]          
     3s_h    26   28   27
          inv. 180 deg rotation - cart. axis [0,0,1]             
     6S4     31   32   39   40   36   35
          inv.  90 deg rotation - cart. axis [0,0,-1]            
     6s_d    29   30   38   37   34   33
          inv. 180 deg rotation - cart. axis [1,1,0]             

   Cartesian axes

     site n.     atom                  positions (alat units)
         1           Rb  tau(   1) = (   0.0000000   0.0000000   0.0000000  )
         2           Br  tau(   2) = (  -0.5000000   0.5000000   0.5000000  )

   Crystallographic axes

     site n.     atom                  positions (cryst. coord.)
         1           Rb  tau(   1) = (  0.0000000  0.0000000  0.0000000  )
         2           Br  tau(   2) = (  0.5000000  0.5000000  0.5000000  )

     number of k points=   101
                       cart. coord. in units 2pi/alat
        k(    1) = (   0.0000000   0.0000000   0.0000000), wk =   0.0198020
        k(    2) = (   0.0000000   0.0100000   0.0000000), wk =   0.0198020
        k(    3) = (   0.0000000   0.0200000   0.0000000), wk =   0.0198020
        k(    4) = (   0.0000000   0.0300000   0.0000000), wk =   0.0198020
        k(    5) = (   0.0000000   0.0400000   0.0000000), wk =   0.0198020
        k(    6) = (   0.0000000   0.0500000   0.0000000), wk =   0.0198020
        k(    7) = (   0.0000000   0.0600000   0.0000000), wk =   0.0198020
        k(    8) = (   0.0000000   0.0700000   0.0000000), wk =   0.0198020
        k(    9) = (   0.0000000   0.0800000   0.0000000), wk =   0.0198020
        k(   10) = (   0.0000000   0.0900000   0.0000000), wk =   0.0198020
        k(   11) = (   0.0000000   0.1000000   0.0000000), wk =   0.0198020
        k(   12) = (   0.0000000   0.1100000   0.0000000), wk =   0.0198020
        k(   13) = (   0.0000000   0.1200000   0.0000000), wk =   0.0198020
        k(   14) = (   0.0000000   0.1300000   0.0000000), wk =   0.0198020
        k(   15) = (   0.0000000   0.1400000   0.0000000), wk =   0.0198020
        k(   16) = (   0.0000000   0.1500000   0.0000000), wk =   0.0198020
        k(   17) = (   0.0000000   0.1600000   0.0000000), wk =   0.0198020
        k(   18) = (   0.0000000   0.1700000   0.0000000), wk =   0.0198020
        k(   19) = (   0.0000000   0.1800000   0.0000000), wk =   0.0198020
        k(   20) = (   0.0000000   0.1900000   0.0000000), wk =   0.0198020
        k(   21) = (   0.0000000   0.2000000   0.0000000), wk =   0.0198020
        k(   22) = (   0.0000000   0.2100000   0.0000000), wk =   0.0198020
        k(   23) = (   0.0000000   0.2200000   0.0000000), wk =   0.0198020
        k(   24) = (   0.0000000   0.2300000   0.0000000), wk =   0.0198020
        k(   25) = (   0.0000000   0.2400000   0.0000000), wk =   0.0198020
        k(   26) = (   0.0000000   0.2500000   0.0000000), wk =   0.0198020
        k(   27) = (   0.0000000   0.2600000   0.0000000), wk =   0.0198020
        k(   28) = (   0.0000000   0.2700000   0.0000000), wk =   0.0198020
        k(   29) = (   0.0000000   0.2800000   0.0000000), wk =   0.0198020
        k(   30) = (   0.0000000   0.2900000   0.0000000), wk =   0.0198020
        k(   31) = (   0.0000000   0.3000000   0.0000000), wk =   0.0198020
        k(   32) = (   0.0000000   0.3100000   0.0000000), wk =   0.0198020
        k(   33) = (   0.0000000   0.3200000   0.0000000), wk =   0.0198020
        k(   34) = (   0.0000000   0.3300000   0.0000000), wk =   0.0198020
        k(   35) = (   0.0000000   0.3400000   0.0000000), wk =   0.0198020
        k(   36) = (   0.0000000   0.3500000   0.0000000), wk =   0.0198020
        k(   37) = (   0.0000000   0.3600000   0.0000000), wk =   0.0198020
        k(   38) = (   0.0000000   0.3700000   0.0000000), wk =   0.0198020
        k(   39) = (   0.0000000   0.3800000   0.0000000), wk =   0.0198020
        k(   40) = (   0.0000000   0.3900000   0.0000000), wk =   0.0198020
        k(   41) = (   0.0000000   0.4000000   0.0000000), wk =   0.0198020
        k(   42) = (   0.0000000   0.4100000   0.0000000), wk =   0.0198020
        k(   43) = (   0.0000000   0.4200000   0.0000000), wk =   0.0198020
        k(   44) = (   0.0000000   0.4300000   0.0000000), wk =   0.0198020
        k(   45) = (   0.0000000   0.4400000   0.0000000), wk =   0.0198020
        k(   46) = (   0.0000000   0.4500000   0.0000000), wk =   0.0198020
        k(   47) = (   0.0000000   0.4600000   0.0000000), wk =   0.0198020
        k(   48) = (   0.0000000   0.4700000   0.0000000), wk =   0.0198020
        k(   49) = (   0.0000000   0.4800000   0.0000000), wk =   0.0198020
        k(   50) = (   0.0000000   0.4900000   0.0000000), wk =   0.0198020
        k(   51) = (   0.0000000   0.5000000   0.0000000), wk =   0.0198020
        k(   52) = (   0.0000000   0.5100000   0.0000000), wk =   0.0198020
        k(   53) = (   0.0000000   0.5200000   0.0000000), wk =   0.0198020
        k(   54) = (   0.0000000   0.5300000   0.0000000), wk =   0.0198020
        k(   55) = (   0.0000000   0.5400000   0.0000000), wk =   0.0198020
        k(   56) = (   0.0000000   0.5500000   0.0000000), wk =   0.0198020
        k(   57) = (   0.0000000   0.5600000   0.0000000), wk =   0.0198020
        k(   58) = (   0.0000000   0.5700000   0.0000000), wk =   0.0198020
        k(   59) = (   0.0000000   0.5800000   0.0000000), wk =   0.0198020
        k(   60) = (   0.0000000   0.5900000   0.0000000), wk =   0.0198020
        k(   61) = (   0.0000000   0.6000000   0.0000000), wk =   0.0198020
        k(   62) = (   0.0000000   0.6100000   0.0000000), wk =   0.0198020
        k(   63) = (   0.0000000   0.6200000   0.0000000), wk =   0.0198020
        k(   64) = (   0.0000000   0.6300000   0.0000000), wk =   0.0198020
        k(   65) = (   0.0000000   0.6400000   0.0000000), wk =   0.0198020
        k(   66) = (   0.0000000   0.6500000   0.0000000), wk =   0.0198020
        k(   67) = (   0.0000000   0.6600000   0.0000000), wk =   0.0198020
        k(   68) = (   0.0000000   0.6700000   0.0000000), wk =   0.0198020
        k(   69) = (   0.0000000   0.6800000   0.0000000), wk =   0.0198020
        k(   70) = (   0.0000000   0.6900000   0.0000000), wk =   0.0198020
        k(   71) = (   0.0000000   0.7000000   0.0000000), wk =   0.0198020
        k(   72) = (   0.0000000   0.7100000   0.0000000), wk =   0.0198020
        k(   73) = (   0.0000000   0.7200000   0.0000000), wk =   0.0198020
        k(   74) = (   0.0000000   0.7300000   0.0000000), wk =   0.0198020
        k(   75) = (   0.0000000   0.7400000   0.0000000), wk =   0.0198020
        k(   76) = (   0.0000000   0.7500000   0.0000000), wk =   0.0198020
        k(   77) = (   0.0000000   0.7600000   0.0000000), wk =   0.0198020
        k(   78) = (   0.0000000   0.7700000   0.0000000), wk =   0.0198020
        k(   79) = (   0.0000000   0.7800000   0.0000000), wk =   0.0198020
        k(   80) = (   0.0000000   0.7900000   0.0000000), wk =   0.0198020
        k(   81) = (   0.0000000   0.8000000   0.0000000), wk =   0.0198020
        k(   82) = (   0.0000000   0.8100000   0.0000000), wk =   0.0198020
        k(   83) = (   0.0000000   0.8200000   0.0000000), wk =   0.0198020
        k(   84) = (   0.0000000   0.8300000   0.0000000), wk =   0.0198020
        k(   85) = (   0.0000000   0.8400000   0.0000000), wk =   0.0198020
        k(   86) = (   0.0000000   0.8500000   0.0000000), wk =   0.0198020
        k(   87) = (   0.0000000   0.8600000   0.0000000), wk =   0.0198020
        k(   88) = (   0.0000000   0.8700000   0.0000000), wk =   0.0198020
        k(   89) = (   0.0000000   0.8800000   0.0000000), wk =   0.0198020
        k(   90) = (   0.0000000   0.8900000   0.0000000), wk =   0.0198020
        k(   91) = (   0.0000000   0.9000000   0.0000000), wk =   0.0198020
        k(   92) = (   0.0000000   0.9100000   0.0000000), wk =   0.0198020
        k(   93) = (   0.0000000   0.9200000   0.0000000), wk =   0.0198020
        k(   94) = (   0.0000000   0.9300000   0.0000000), wk =   0.0198020
        k(   95) = (   0.0000000   0.9400000   0.0000000), wk =   0.0198020
        k(   96) = (   0.0000000   0.9500000   0.0000000), wk =   0.0198020
        k(   97) = (   0.0000000   0.9600000   0.0000000), wk =   0.0198020
        k(   98) = (   0.0000000   0.9700000   0.0000000), wk =   0.0198020
        k(   99) = (   0.0000000   0.9800000   0.0000000), wk =   0.0198020
        k(  100) = (   0.0000000   0.9900000   0.0000000), wk =   0.0198020
        k(  101) = (   0.0000000   1.0000000   0.0000000), wk =   0.0198020

                       cryst. coord.
        k(    1) = (   0.0000000   0.0000000   0.0000000), wk =   0.0198020
        k(    2) = (   0.0000000   0.0050000   0.0050000), wk =   0.0198020
        k(    3) = (   0.0000000   0.0100000   0.0100000), wk =   0.0198020
        k(    4) = (   0.0000000   0.0150000   0.0150000), wk =   0.0198020
        k(    5) = (   0.0000000   0.0200000   0.0200000), wk =   0.0198020
        k(    6) = (   0.0000000   0.0250000   0.0250000), wk =   0.0198020
        k(    7) = (   0.0000000   0.0300000   0.0300000), wk =   0.0198020
        k(    8) = (   0.0000000   0.0350000   0.0350000), wk =   0.0198020
        k(    9) = (   0.0000000   0.0400000   0.0400000), wk =   0.0198020
        k(   10) = (   0.0000000   0.0450000   0.0450000), wk =   0.0198020
        k(   11) = (   0.0000000   0.0500000   0.0500000), wk =   0.0198020
        k(   12) = (   0.0000000   0.0550000   0.0550000), wk =   0.0198020
        k(   13) = (   0.0000000   0.0600000   0.0600000), wk =   0.0198020
        k(   14) = (   0.0000000   0.0650000   0.0650000), wk =   0.0198020
        k(   15) = (   0.0000000   0.0700000   0.0700000), wk =   0.0198020
        k(   16) = (   0.0000000   0.0750000   0.0750000), wk =   0.0198020
        k(   17) = (   0.0000000   0.0800000   0.0800000), wk =   0.0198020
        k(   18) = (   0.0000000   0.0850000   0.0850000), wk =   0.0198020
        k(   19) = (   0.0000000   0.0900000   0.0900000), wk =   0.0198020
        k(   20) = (   0.0000000   0.0950000   0.0950000), wk =   0.0198020
        k(   21) = (   0.0000000   0.1000000   0.1000000), wk =   0.0198020
        k(   22) = (   0.0000000   0.1050000   0.1050000), wk =   0.0198020
        k(   23) = (   0.0000000   0.1100000   0.1100000), wk =   0.0198020
        k(   24) = (   0.0000000   0.1150000   0.1150000), wk =   0.0198020
        k(   25) = (   0.0000000   0.1200000   0.1200000), wk =   0.0198020
        k(   26) = (   0.0000000   0.1250000   0.1250000), wk =   0.0198020
        k(   27) = (   0.0000000   0.1300000   0.1300000), wk =   0.0198020
        k(   28) = (   0.0000000   0.1350000   0.1350000), wk =   0.0198020
        k(   29) = (   0.0000000   0.1400000   0.1400000), wk =   0.0198020
        k(   30) = (   0.0000000   0.1450000   0.1450000), wk =   0.0198020
        k(   31) = (   0.0000000   0.1500000   0.1500000), wk =   0.0198020
        k(   32) = (   0.0000000   0.1550000   0.1550000), wk =   0.0198020
        k(   33) = (   0.0000000   0.1600000   0.1600000), wk =   0.0198020
        k(   34) = (   0.0000000   0.1650000   0.1650000), wk =   0.0198020
        k(   35) = (   0.0000000   0.1700000   0.1700000), wk =   0.0198020
        k(   36) = (   0.0000000   0.1750000   0.1750000), wk =   0.0198020
        k(   37) = (   0.0000000   0.1800000   0.1800000), wk =   0.0198020
        k(   38) = (   0.0000000   0.1850000   0.1850000), wk =   0.0198020
        k(   39) = (   0.0000000   0.1900000   0.1900000), wk =   0.0198020
        k(   40) = (   0.0000000   0.1950000   0.1950000), wk =   0.0198020
        k(   41) = (   0.0000000   0.2000000   0.2000000), wk =   0.0198020
        k(   42) = (   0.0000000   0.2050000   0.2050000), wk =   0.0198020
        k(   43) = (   0.0000000   0.2100000   0.2100000), wk =   0.0198020
        k(   44) = (   0.0000000   0.2150000   0.2150000), wk =   0.0198020
        k(   45) = (   0.0000000   0.2200000   0.2200000), wk =   0.0198020
        k(   46) = (   0.0000000   0.2250000   0.2250000), wk =   0.0198020
        k(   47) = (   0.0000000   0.2300000   0.2300000), wk =   0.0198020
        k(   48) = (   0.0000000   0.2350000   0.2350000), wk =   0.0198020
        k(   49) = (   0.0000000   0.2400000   0.2400000), wk =   0.0198020
        k(   50) = (   0.0000000   0.2450000   0.2450000), wk =   0.0198020
        k(   51) = (   0.0000000   0.2500000   0.2500000), wk =   0.0198020
        k(   52) = (   0.0000000   0.2550000   0.2550000), wk =   0.0198020
        k(   53) = (   0.0000000   0.2600000   0.2600000), wk =   0.0198020
        k(   54) = (   0.0000000   0.2650000   0.2650000), wk =   0.0198020
        k(   55) = (   0.0000000   0.2700000   0.2700000), wk =   0.0198020
        k(   56) = (   0.0000000   0.2750000   0.2750000), wk =   0.0198020
        k(   57) = (   0.0000000   0.2800000   0.2800000), wk =   0.0198020
        k(   58) = (   0.0000000   0.2850000   0.2850000), wk =   0.0198020
        k(   59) = (   0.0000000   0.2900000   0.2900000), wk =   0.0198020
        k(   60) = (   0.0000000   0.2950000   0.2950000), wk =   0.0198020
        k(   61) = (   0.0000000   0.3000000   0.3000000), wk =   0.0198020
        k(   62) = (   0.0000000   0.3050000   0.3050000), wk =   0.0198020
        k(   63) = (   0.0000000   0.3100000   0.3100000), wk =   0.0198020
        k(   64) = (   0.0000000   0.3150000   0.3150000), wk =   0.0198020
        k(   65) = (   0.0000000   0.3200000   0.3200000), wk =   0.0198020
        k(   66) = (   0.0000000   0.3250000   0.3250000), wk =   0.0198020
        k(   67) = (   0.0000000   0.3300000   0.3300000), wk =   0.0198020
        k(   68) = (   0.0000000   0.3350000   0.3350000), wk =   0.0198020
        k(   69) = (   0.0000000   0.3400000   0.3400000), wk =   0.0198020
        k(   70) = (   0.0000000   0.3450000   0.3450000), wk =   0.0198020
        k(   71) = (   0.0000000   0.3500000   0.3500000), wk =   0.0198020
        k(   72) = (   0.0000000   0.3550000   0.3550000), wk =   0.0198020
        k(   73) = (   0.0000000   0.3600000   0.3600000), wk =   0.0198020
        k(   74) = (   0.0000000   0.3650000   0.3650000), wk =   0.0198020
        k(   75) = (   0.0000000   0.3700000   0.3700000), wk =   0.0198020
        k(   76) = (   0.0000000   0.3750000   0.3750000), wk =   0.0198020
        k(   77) = (   0.0000000   0.3800000   0.3800000), wk =   0.0198020
        k(   78) = (   0.0000000   0.3850000   0.3850000), wk =   0.0198020
        k(   79) = (   0.0000000   0.3900000   0.3900000), wk =   0.0198020
        k(   80) = (   0.0000000   0.3950000   0.3950000), wk =   0.0198020
        k(   81) = (   0.0000000   0.4000000   0.4000000), wk =   0.0198020
        k(   82) = (   0.0000000   0.4050000   0.4050000), wk =   0.0198020
        k(   83) = (   0.0000000   0.4100000   0.4100000), wk =   0.0198020
        k(   84) = (   0.0000000   0.4150000   0.4150000), wk =   0.0198020
        k(   85) = (   0.0000000   0.4200000   0.4200000), wk =   0.0198020
        k(   86) = (   0.0000000   0.4250000   0.4250000), wk =   0.0198020
        k(   87) = (   0.0000000   0.4300000   0.4300000), wk =   0.0198020
        k(   88) = (   0.0000000   0.4350000   0.4350000), wk =   0.0198020
        k(   89) = (   0.0000000   0.4400000   0.4400000), wk =   0.0198020
        k(   90) = (   0.0000000   0.4450000   0.4450000), wk =   0.0198020
        k(   91) = (   0.0000000   0.4500000   0.4500000), wk =   0.0198020
        k(   92) = (   0.0000000   0.4550000   0.4550000), wk =   0.0198020
        k(   93) = (   0.0000000   0.4600000   0.4600000), wk =   0.0198020
        k(   94) = (   0.0000000   0.4650000   0.4650000), wk =   0.0198020
        k(   95) = (   0.0000000   0.4700000   0.4700000), wk =   0.0198020
        k(   96) = (   0.0000000   0.4750000   0.4750000), wk =   0.0198020
        k(   97) = (   0.0000000   0.4800000   0.4800000), wk =   0.0198020
        k(   98) = (   0.0000000   0.4850000   0.4850000), wk =   0.0198020
        k(   99) = (   0.0000000   0.4900000   0.4900000), wk =   0.0198020
        k(  100) = (   0.0000000   0.4950000   0.4950000), wk =   0.0198020
        k(  101) = (   0.0000000   0.5000000   0.5000000), wk =   0.0198020

     Dense  grid:    42087 G-vectors     FFT dimensions: (  50,  50,  50)

     Dynamical RAM for                 wfc:       1.93 MB

     Dynamical RAM for     wfc (w. buffer):       1.93 MB

     Dynamical RAM for           str. fact:       1.28 MB

     Dynamical RAM for           local pot:       0.00 MB

     Dynamical RAM for          nlocal pot:       2.09 MB

     Dynamical RAM for                qrad:       2.61 MB

     Dynamical RAM for          rho,v,vnew:       4.79 MB

     Dynamical RAM for           G-vectors:       2.73 MB

     Dynamical RAM for          h,s,v(r/c):       0.11 MB

     Dynamical RAM for          <psi|beta>:       0.01 MB

     Dynamical RAM for                 psi:       3.86 MB

     Dynamical RAM for                hpsi:       3.86 MB

     Dynamical RAM for                spsi:       3.86 MB

     Dynamical RAM for      wfcinit/wfcrot:       3.88 MB

     Dynamical RAM for           addusdens:       3.63 MB

     Estimated static dynamical RAM per process >      22.13 MB

     Estimated max dynamical RAM per process >      33.83 MB

     Estimated total dynamical RAM >       1.32 GB

     Check: negative core charge=   -0.000002

     The potential is recalculated from file :
     ./rbbr.save/charge-density

     Starting wfcs are   12 randomized atomic wfcs +   12 random wfcs
     Checking if some PAW data can be deallocated... 
       PAW data deallocated on   20 nodes for type:  1
       PAW data deallocated on   20 nodes for type:  2

     Band Structure Calculation
     Davidson diagonalization with overlap

     Computing kpt #:     1  of     3 on this pool
     total cpu time spent up to now is        4.6 secs

     Computing kpt #:     2  of     3 on this pool
     total cpu time spent up to now is        7.1 secs

     Computing kpt #:     3  of     3 on this pool
     total cpu time spent up to now is        9.2 secs

     ethr =  6.25E-13,  avg # of iterations = 51.9

     total cpu time spent up to now is        9.2 secs

     End of band structure calculation

          k = 0.0000 0.0000 0.0000 (  5209 PWs)   bands (ev):

   -23.7697 -11.3135  -7.8363  -7.8363  -7.8363   0.8030   0.8030   0.8030
     4.9969   8.0586   8.0586   8.0586   8.9003   8.9003  11.6163  16.1247
    16.1247  16.1247  16.2570  16.2570  16.2570  18.9399  18.9399  19.0139

          k = 0.0000 0.0100 0.0000 (  5209 PWs)   bands (ev):

   -23.7697 -11.3135  -7.8363  -7.8363  -7.8363   0.8025   0.8029   0.8029
     4.9977   8.0579   8.0592   8.0592   8.9005   8.9010  11.6175  16.1026
    16.1026  16.1248  16.2529  16.2784  16.2784  18.9089  18.9396  19.0140

          k = 0.0000 0.0200 0.0000 (  5209 PWs)   bands (ev):

   -23.7697 -11.3136  -7.8364  -7.8364  -7.8362   0.8010   0.8027   0.8027
     5.0001   8.0558   8.0610   8.0610   8.9010   8.9031  11.6213  16.0563
    16.0563  16.1252  16.2406  16.3229  16.3229  18.8563  18.9386  19.0140

          k = 0.0000 0.0300 0.0000 (  5209 PWs)   bands (ev):

   -23.7697 -11.3136  -7.8364  -7.8364  -7.8360   0.7986   0.8025   0.8025
     5.0040   8.0522   8.0639   8.0639   8.9020   8.9067  11.6277  16.0024
    16.0024  16.1258  16.2204  16.3737  16.3737  18.7996  18.9371  19.0141

          k = 0.0000 0.0400 0.0000 (  5209 PWs)   bands (ev):

   -23.7697 -11.3137  -7.8365  -7.8365  -7.8358   0.7952   0.8021   0.8021
     5.0095   8.0472   8.0681   8.0681   8.9033   8.9117  11.6365  15.9456
    15.9456  16.1268  16.1925  16.4262  16.4262  18.7408  18.9349  19.0142

          k = 0.0000 0.0500 0.0000 (  5209 PWs)   bands (ev):

   -23.7697 -11.3138  -7.8367  -7.8367  -7.8355   0.7909   0.8016   0.8016
     5.0166   8.0409   8.0734   8.0734   8.9050   8.9181  11.6478  15.8874
    15.8874  16.1280  16.1573  16.4789  16.4789  18.6803  18.9321  19.0144

          k = 0.0000 0.0600 0.0000 (  5205 PWs)   bands (ev):

   -23.7697 -11.3139  -7.8368  -7.8368  -7.8352   0.7856   0.8010   0.8010
     5.0252   8.0332   8.0799   8.0799   8.9070   8.9259  11.6615  15.8282
    15.8282  16.1153  16.1294  16.5313  16.5313  18.6181  18.9287  19.0147

          k = 0.0000 0.0700 0.0000 (  5213 PWs)   bands (ev):

   -23.7696 -11.3140  -7.8370  -7.8370  -7.8348   0.7795   0.8003   0.8003
     5.0353   8.0241   8.0875   8.0875   8.9094   8.9351  11.6777  15.7683
    15.7683  16.0669  16.1311  16.5829  16.5829  18.5542  18.9246  19.0151

          k = 0.0000 0.0800 0.0000 (  5217 PWs)   bands (ev):

   -23.7696 -11.3141  -7.8372  -7.8372  -7.8344   0.7725   0.7995   0.7995
     5.0468   8.0138   8.0964   8.0964   8.9122   8.9457  11.6963  15.7080
    15.7080  16.0127  16.1331  16.6337  16.6337  18.4887  18.9199  19.0156

          k = 0.0000 0.0900 0.0000 (  5213 PWs)   bands (ev):

   -23.7696 -11.3143  -7.8374  -7.8374  -7.8339   0.7647   0.7986   0.7986
     5.0598   8.0023   8.1064   8.1064   8.9154   8.9577  11.7171  15.6474
    15.6474  15.9533  16.1354  16.6835  16.6835  18.4216  18.9145  19.0164

          k = 0.0000 0.1000 0.0000 (  5213 PWs)   bands (ev):

   -23.7695 -11.3144  -7.8376  -7.8376  -7.8333   0.7561   0.7976   0.7976
     5.0742   7.9896   8.1175   8.1175   8.9189   8.9711  11.7403  15.5865
    15.5865  15.8891  16.1379  16.7321  16.7321  18.3531  18.9084  19.0173

          k = 0.0000 0.1100 0.0000 (  5205 PWs)   bands (ev):

   -23.7695 -11.3146  -7.8379  -7.8379  -7.8327   0.7467   0.7965   0.7965
     5.0899   7.9757   8.1299   8.1299   8.9229   8.9858  11.7657  15.5254
    15.5254  15.8206  16.1407  16.7795  16.7795  18.2832  18.9016  19.0186

          k = 0.0000 0.1200 0.0000 (  5209 PWs)   bands (ev):

   -23.7694 -11.3148  -7.8382  -7.8382  -7.8321   0.7366   0.7953   0.7953
     5.1070   7.9608   8.1433   8.1433   8.9271   9.0018  11.7932  15.4642
    15.4642  15.7482  16.1437  16.8254  16.8254  18.2122  18.8940  19.0201

          k = 0.0000 0.1300 0.0000 (  5193 PWs)   bands (ev):

   -23.7694 -11.3150  -7.8385  -7.8385  -7.8314   0.7259   0.7940   0.7940
     5.1253   7.9448   8.1580   8.1580   8.9318   9.0192  11.8229  15.4029
    15.4029  15.6725  16.1470  16.8699  16.8699  18.1401  18.8858  19.0221

          k = 0.0000 0.1400 0.0000 (  5193 PWs)   bands (ev):

   -23.7693 -11.3152  -7.8389  -7.8389  -7.8308   0.7145   0.7926   0.7926
     5.1448   7.9279   8.1737   8.1737   8.9367   9.0379  11.8546  15.3415
    15.3415  15.5937  16.1506  16.9127  16.9127  18.0671  18.8767  19.0245

          k = 0.0000 0.1500 0.0000 (  5197 PWs)   bands (ev):

   -23.7693 -11.3154  -7.8393  -7.8393  -7.8300   0.7026   0.7912   0.7912
     5.1656   7.9100   8.1906   8.1906   8.9421   9.0578  11.8884  15.2802
    15.2802  15.5123  16.1544  16.9539  16.9539  17.9934  18.8668  19.0274

          k = 0.0000 0.1600 0.0000 (  5205 PWs)   bands (ev):

   -23.7692 -11.3156  -7.8397  -7.8397  -7.8293   0.6901   0.7896   0.7896
     5.1874   7.8913   8.2087   8.2087   8.9478   9.0790  11.9240  15.2189
    15.2189  15.4285  16.1585  16.9933  16.9933  17.9190  18.8561  19.0308

          k = 0.0000 0.1700 0.0000 (  5205 PWs)   bands (ev):

   -23.7691 -11.3158  -7.8401  -7.8401  -7.8286   0.6772   0.7880   0.7880
     5.2103   7.8718   8.2278   8.2278   8.9539   9.1014  11.9616  15.1577
    15.1577  15.3428  16.1629  17.0307  17.0307  17.8443  18.8445  19.0349

          k = 0.0000 0.1800 0.0000 (  5209 PWs)   bands (ev):

   -23.7691 -11.3160  -7.8405  -7.8405  -7.8278   0.6638   0.7862   0.7862
     5.2343   7.8515   8.2481   8.2481   8.9603   9.1250  12.0009  15.0966
    15.0966  15.2552  16.1675  17.0662  17.0662  17.7692  18.8319  19.0397

          k = 0.0000 0.1900 0.0000 (  5225 PWs)   bands (ev):

   -23.7690 -11.3163  -7.8410  -7.8410  -7.8271   0.6501   0.7845   0.7845
     5.2592   7.8306   8.2695   8.2695   8.9670   9.1497  12.0421  15.0356
    15.0356  15.1661  16.1724  17.0996  17.0996  17.6940  18.8185  19.0452

          k = 0.0000 0.2000 0.0000 (  5221 PWs)   bands (ev):

   -23.7689 -11.3165  -7.8415  -7.8415  -7.8264   0.6361   0.7826   0.7826
     5.2850   7.8090   8.2919   8.2919   8.9741   9.1756  12.0849  14.9749
    14.9749  15.0756  16.1776  17.1308  17.1308  17.6188  18.8040  19.0516

          k = 0.0000 0.2100 0.0000 (  5237 PWs)   bands (ev):

   -23.7689 -11.3167  -7.8420  -7.8420  -7.8256   0.6217   0.7807   0.7807
     5.3117   7.7869   8.3155   8.3155   8.9816   9.2025  12.1293  14.9143
    14.9143  14.9841  16.1831  17.1597  17.1597  17.5437  18.7884  19.0589

          k = 0.0000 0.2200 0.0000 (  5237 PWs)   bands (ev):

   -23.7688 -11.3169  -7.8425  -7.8425  -7.8249   0.6072   0.7786   0.7786
     5.3393   7.7642   8.3401   8.3401   8.9894   9.2305  12.1753  14.8540
    14.8540  14.8915  16.1888  17.1862  17.1862  17.4688  18.7718  19.0671

          k = 0.0000 0.2300 0.0000 (  5245 PWs)   bands (ev):

   -23.7687 -11.3171  -7.8431  -7.8431  -7.8243   0.5925   0.7766   0.7766
     5.3676   7.7411   8.3659   8.3659   8.9975   9.2594  12.2229  14.7940
    14.7940  14.7982  16.1947  17.2103  17.2103  17.3944  18.7540  19.0763

          k = 0.0000 0.2400 0.0000 (  5241 PWs)   bands (ev):

   -23.7686 -11.3173  -7.8436  -7.8436  -7.8236   0.5777   0.7745   0.7745
     5.3966   7.7175   8.3926   8.3926   9.0059   9.2893  12.2719  14.7042
    14.7342  14.7342  16.2010  17.2319  17.2319  17.3205  18.7349  19.0866

          k = 0.0000 0.2500 0.0000 (  5249 PWs)   bands (ev):

   -23.7685 -11.3174  -7.8442  -7.8442  -7.8230   0.5628   0.7723   0.7723
     5.4264   7.6936   8.4205   8.4205   9.0147   9.3201  12.3223  14.6096
    14.6748  14.6748  16.2075  17.2472  17.2509  17.2509  18.7146  19.0980

          k = 0.0000 0.2600 0.0000 (  5249 PWs)   bands (ev):

   -23.7684 -11.3176  -7.8448  -7.8448  -7.8225   0.5479   0.7701   0.7701
     5.4567   7.6694   8.4493   8.4493   9.0238   9.3517  12.3741  14.5147
    14.6157  14.6157  16.2143  17.1747  17.2673  17.2673  18.6930  19.1104

          k = 0.0000 0.2700 0.0000 (  5249 PWs)   bands (ev):

   -23.7683 -11.3177  -7.8455  -7.8455  -7.8220   0.5330   0.7678   0.7678
     5.4877   7.6448   8.4792   8.4792   9.0332   9.3840  12.4272  14.4194
    14.5570  14.5570  16.2214  17.1031  17.2811  17.2811  18.6699  19.1240

          k = 0.0000 0.2800 0.0000 (  5249 PWs)   bands (ev):

   -23.7682 -11.3178  -7.8461  -7.8461  -7.8215   0.5182   0.7655   0.7655
     5.5192   7.6201   8.5101   8.5101   9.0429   9.4171  12.4815  14.3240
    14.4987  14.4987  16.2288  17.0324  17.2923  17.2923  18.6454  19.1387

          k = 0.0000 0.2900 0.0000 (  5249 PWs)   bands (ev):

   -23.7681 -11.3179  -7.8468  -7.8468  -7.8211   0.5034   0.7631   0.7631
     5.5512   7.5951   8.5421   8.5421   9.0529   9.4507  12.5371  14.2284
    14.4408  14.4408  16.2364  16.9629  17.3007  17.3007  18.6194  19.1545

          k = 0.0000 0.3000 0.0000 (  5257 PWs)   bands (ev):

   -23.7680 -11.3180  -7.8474  -7.8474  -7.8208   0.4888   0.7607   0.7607
     5.5837   7.5700   8.5750   8.5750   9.0633   9.4849  12.5938  14.1328
    14.3834  14.3834  16.2444  16.8946  17.3065  17.3065  18.5918  19.1715

          k = 0.0000 0.3100 0.0000 (  5257 PWs)   bands (ev):

   -23.7679 -11.3181  -7.8481  -7.8481  -7.8206   0.4744   0.7583   0.7583
     5.6167   7.5447   8.6089   8.6089   9.0739   9.5196  12.6516  14.0373
    14.3264  14.3264  16.2526  16.8277  17.3096  17.3096  18.5626  19.1895

          k = 0.0000 0.3200 0.0000 (  5269 PWs)   bands (ev):

   -23.7678 -11.3181  -7.8488  -7.8488  -7.8205   0.4603   0.7558   0.7558
     5.6501   7.5194   8.6437   8.6437   9.0848   9.5546  12.7106  13.9419
    14.2699  14.2699  16.2611  16.7622  17.3101  17.3101  18.5317  19.2085

          k = 0.0000 0.3300 0.0000 (  5269 PWs)   bands (ev):

   -23.7677 -11.3181  -7.8496  -7.8496  -7.8204   0.4463   0.7533   0.7533
     5.6838   7.4939   8.6795   8.6795   9.0960   9.5899  12.7705  13.8468
    14.2140  14.2140  16.2699  16.6983  17.3080  17.3080  18.4992  19.2285

          k = 0.0000 0.3400 0.0000 (  5269 PWs)   bands (ev):

   -23.7676 -11.3180  -7.8503  -7.8503  -7.8205   0.4327   0.7508   0.7508
     5.7179   7.4685   8.7163   8.7163   9.1075   9.6254  12.8314  13.7519
    14.1585  14.1585  16.2791  16.6361  17.3033  17.3033  18.4649  19.2495

          k = 0.0000 0.3500 0.0000 (  5269 PWs)   bands (ev):

   -23.7674 -11.3180  -7.8511  -7.8511  -7.8207   0.4194   0.7483   0.7483
     5.7523   7.4431   8.7540   8.7540   9.1192   9.6610  12.8933  13.6573
    14.1037  14.1037  16.2885  16.5757  17.2962  17.2962  18.4290  19.2714

          k = 0.0000 0.3600 0.0000 (  5261 PWs)   bands (ev):

   -23.7673 -11.3179  -7.8518  -7.8518  -7.8209   0.4064   0.7458   0.7458
     5.7870   7.4177   8.7926   8.7926   9.1312   9.6966  12.9561  13.5632
    14.0494  14.0494  16.2983  16.5172  17.2866  17.2866  18.3913  19.2940

          k = 0.0000 0.3700 0.0000 (  5261 PWs)   bands (ev):

   -23.7672 -11.3177  -7.8526  -7.8526  -7.8213   0.3938   0.7432   0.7432
     5.8220   7.3923   8.8321   8.8321   9.1435   9.7320  13.0197  13.4695
    13.9956  13.9956  16.3084  16.4608  17.2746  17.2746  18.3520  19.3174

          k = 0.0000 0.3800 0.0000 (  5261 PWs)   bands (ev):

   -23.7671 -11.3176  -7.8534  -7.8534  -7.8218   0.3817   0.7407   0.7407
     5.8572   7.3671   8.8724   8.8724   9.1560   9.7672  13.0842  13.3763
    13.9426  13.9426  16.3188  16.4065  17.2602  17.2602  18.3110  19.3414

          k = 0.0000 0.3900 0.0000 (  5277 PWs)   bands (ev):

   -23.7670 -11.3173  -7.8542  -7.8542  -7.8224   0.3699   0.7381   0.7381
     5.8927   7.3419   8.9137   8.9137   9.1687   9.8020  13.1494  13.2838
    13.8901  13.8901  16.3296  16.3545  17.2436  17.2436  18.2685  19.3661

          k = 0.0000 0.4000 0.0000 (  5281 PWs)   bands (ev):

   -23.7668 -11.3171  -7.8550  -7.8550  -7.8232   0.3586   0.7356   0.7356
     5.9284   7.3169   8.9557   8.9557   9.1817   9.8363  13.1918  13.2154
    13.8383  13.8383  16.3050  16.3408  17.2248  17.2248  18.2244  19.3912

          k = 0.0000 0.4100 0.0000 (  5277 PWs)   bands (ev):

   -23.7667 -11.3168  -7.8558  -7.8558  -7.8241   0.3477   0.7330   0.7330
     5.9642   7.2921   8.9986   8.9986   9.1949   9.8700  13.1006  13.2821
    13.7871  13.7871  16.2580  16.3523  17.2039  17.2039  18.1790  19.4168

          k = 0.0000 0.4200 0.0000 (  5277 PWs)   bands (ev):

   -23.7666 -11.3165  -7.8566  -7.8566  -7.8251   0.3374   0.7305   0.7305
     6.0002   7.2674   9.0424   9.0424   9.2083   9.9030  13.0101  13.3494
    13.7367  13.7367  16.2137  16.3642  17.1808  17.1808  18.1322  19.4428

          k = 0.0000 0.4300 0.0000 (  5277 PWs)   bands (ev):

   -23.7665 -11.3161  -7.8575  -7.8575  -7.8262   0.3275   0.7280   0.7280
     6.0364   7.2428   9.0869   9.0869   9.2220   9.9350  12.9204  13.4173
    13.6870  13.6870  16.1722  16.3766  17.1558  17.1558  18.0842  19.4691

          k = 0.0000 0.4400 0.0000 (  5285 PWs)   bands (ev):

   -23.7663 -11.3157  -7.8583  -7.8583  -7.8275   0.3181   0.7254   0.7254
     6.0727   7.2185   9.1321   9.1321   9.2358   9.9660  12.8316  13.4858
    13.6380  13.6380  16.1336  16.3893  17.1288  17.1288  18.0350  19.4956

          k = 0.0000 0.4500 0.0000 (  5293 PWs)   bands (ev):

   -23.7662 -11.3153  -7.8592  -7.8592  -7.8289   0.3093   0.7229   0.7229
     6.1091   7.1945   9.1782   9.1782   9.2498   9.9959  12.7436  13.5548
    13.5897  13.5897  16.0980  16.4025  17.0999  17.0999  17.9849  19.5223

          k = 0.0000 0.4600 0.0000 (  5301 PWs)   bands (ev):

   -23.7661 -11.3148  -7.8600  -7.8600  -7.8304   0.3010   0.7205   0.7205
     6.1456   7.1706   9.2249   9.2249   9.2640  10.0244  12.6567  13.5422
    13.5422  13.6243  16.0657  16.4162  17.0692  17.0692  17.9339  19.5491

          k = 0.0000 0.4700 0.0000 (  5301 PWs)   bands (ev):

   -23.7660 -11.3142  -7.8608  -7.8608  -7.8321   0.2932   0.7180   0.7180
     6.1822   7.1471   9.2724   9.2724   9.2783  10.0515  12.5707  13.4956
    13.4956  13.6942  16.0366  16.4304  17.0367  17.0367  17.8821  19.5760

          k = 0.0000 0.4800 0.0000 (  5297 PWs)   bands (ev):

   -23.7658 -11.3136  -7.8617  -7.8617  -7.8339   0.2860   0.7155   0.7155
     6.2189   7.1238   9.2928   9.3206   9.3206  10.0771  12.4858  13.4497
    13.4497  13.7644  16.0110  16.4451  17.0024  17.0024  17.8297  19.5811

          k = 0.0000 0.4900 0.0000 (  5297 PWs)   bands (ev):

   -23.7657 -11.3130  -7.8626  -7.8626  -7.8359   0.2794   0.7131   0.7131
     6.2557   7.1007   9.3075   9.3694   9.3694  10.1009  12.4019  13.4047
    13.4047  13.8349  15.9889  16.4604  16.9665  16.9665  17.7768  19.5553

          k = 0.0000 0.5000 0.0000 (  5297 PWs)   bands (ev):

   -23.7656 -11.3123  -7.8634  -7.8634  -7.8380   0.2733   0.7107   0.7107
     6.2925   7.0780   9.3223   9.4188   9.4188  10.1228  12.3193  13.3605
    13.3605  13.9057  15.9704  16.4763  16.9289  16.9289  17.7234  19.5310

          k = 0.0000 0.5100 0.0000 (  5297 PWs)   bands (ev):

   -23.7654 -11.3116  -7.8643  -7.8643  -7.8402   0.2677   0.7084   0.7084
     6.3294   7.0556   9.3372   9.4689   9.4689  10.1428  12.2378  13.3172
    13.3172  13.9767  15.9557  16.4928  16.8897  16.8897  17.6698  19.5080

          k = 0.0000 0.5200 0.0000 (  5297 PWs)   bands (ev):

   -23.7653 -11.3109  -7.8651  -7.8651  -7.8426   0.2627   0.7061   0.7061
     6.3663   7.0335   9.3522   9.5195   9.5195  10.1607  12.1576  13.2747
    13.2747  14.0478  15.9449  16.5101  16.8489  16.8489  17.6160  19.4861

          k = 0.0000 0.5300 0.0000 (  5297 PWs)   bands (ev):

   -23.7652 -11.3101  -7.8660  -7.8660  -7.8451   0.2583   0.7038   0.7038
     6.4032   7.0117   9.3673   9.5707   9.5707  10.1764  12.0787  13.2333
    13.2333  14.1190  15.9380  16.5280  16.8067  16.8067  17.5620  19.4654

          k = 0.0000 0.5400 0.0000 (  5297 PWs)   bands (ev):

   -23.7650 -11.3093  -7.8668  -7.8668  -7.8477   0.2544   0.7015   0.7015
     6.4401   6.9903   9.3825   9.6224   9.6224  10.1898  12.0011  13.1927
    13.1927  14.1901  15.9350  16.5468  16.7630  16.7630  17.5081  19.4458

          k = 0.0000 0.5500 0.0000 (  5289 PWs)   bands (ev):

   -23.7649 -11.3084  -7.8677  -7.8677  -7.8504   0.2510   0.6993   0.6993
     6.4771   6.9692   9.3977   9.6746   9.6746  10.2009  11.9250  13.1531
    13.1531  14.2611  15.9362  16.5664  16.7179  16.7179  17.4543  19.4272

          k = 0.0000 0.5600 0.0000 (  5297 PWs)   bands (ev):

   -23.7648 -11.3075  -7.8685  -7.8685  -7.8532   0.2482   0.6971   0.6971
     6.5140   6.9485   9.4130   9.7273   9.7273  10.2095  11.8502  13.1146
    13.1146  14.3319  15.9415  16.5869  16.6714  16.6714  17.4007  19.4094

          k = 0.0000 0.5700 0.0000 (  5289 PWs)   bands (ev):

   -23.7647 -11.3066  -7.8694  -7.8694  -7.8562   0.2459   0.6950   0.6950
     6.5509   6.9282   9.4283   9.7803   9.7803  10.2157  11.7769  13.0770
    13.0770  14.4024  15.9509  16.6085  16.6235  16.6235  17.3473  19.3926

          k = 0.0000 0.5800 0.0000 (  5281 PWs)   bands (ev):

   -23.7645 -11.3056  -7.8702  -7.8702  -7.8592   0.2441   0.6929   0.6929
     6.5877   6.9082   9.4437   9.8337   9.8337  10.2193  11.7052  13.0405
    13.0405  14.4725  15.9645  16.5744  16.5744  16.6311  17.2942  19.3765

          k = 0.0000 0.5900 0.0000 (  5281 PWs)   bands (ev):

   -23.7644 -11.3046  -7.8710  -7.8710  -7.8624   0.2428   0.6908   0.6908
     6.6245   6.8887   9.4591   9.8875   9.8875  10.2205  11.6349  13.0051
    13.0051  14.5421  15.9824  16.5240  16.5240  16.6549  17.2416  19.3612

          k = 0.0000 0.6000 0.0000 (  5281 PWs)   bands (ev):

   -23.7643 -11.3036  -7.8719  -7.8719  -7.8657   0.2420   0.6888   0.6888
     6.6612   6.8695   9.4744   9.9415   9.9415  10.2191  11.5662  12.9708
    12.9708  14.6111  16.0044  16.4725  16.4725  16.6799  17.1895  19.3466

          k = 0.0000 0.6100 0.0000 (  5289 PWs)   bands (ev):

   -23.7642 -11.3025  -7.8727  -7.8727  -7.8690   0.2417   0.6869   0.6869
     6.6978   6.8507   9.4898   9.9958   9.9958  10.2152  11.4991  12.9376
    12.9376  14.6794  16.0306  16.4197  16.4197  16.7063  17.1379  19.3327

          k = 0.0000 0.6200 0.0000 (  5277 PWs)   bands (ev):

   -23.7641 -11.3014  -7.8735  -7.8735  -7.8724   0.2418   0.6849   0.6849
     6.7343   6.8323   9.5051  10.0503  10.0503  10.2088  11.4335  12.9056
    12.9056  14.7468  16.0609  16.3659  16.3659  16.7342  17.0869  19.3194

          k = 0.0000 0.6300 0.0000 (  5269 PWs)   bands (ev):

   -23.7639 -11.3003  -7.8759  -7.8743  -7.8743   0.2423   0.6831   0.6831
     6.7707   6.8144   9.5203  10.1049  10.1049  10.2001  11.3696  12.8749
    12.8749  14.8132  16.0953  16.3110  16.3110  16.7637  17.0366  19.3067

          k = 0.0000 0.6400 0.0000 (  5277 PWs)   bands (ev):

   -23.7638 -11.2992  -7.8795  -7.8751  -7.8751   0.2433   0.6813   0.6813
     6.7968   6.8070   9.5355  10.1595  10.1595  10.1892  11.3072  12.8454
    12.8454  14.8784  16.1338  16.2551  16.2551  16.7949  16.9870  19.2945

          k = 0.0000 0.6500 0.0000 (  5277 PWs)   bands (ev):

   -23.7637 -11.2980  -7.8831  -7.8758  -7.8758   0.2447   0.6795   0.6795
     6.7797   6.8431   9.5505  10.1760  10.2142  10.2142  11.2463  12.8172
    12.8172  14.9424  16.1762  16.1982  16.1982  16.8280  16.9382  19.2829

          k = 0.0000 0.6600 0.0000 (  5277 PWs)   bands (ev):

   -23.7636 -11.2969  -7.8867  -7.8766  -7.8766   0.2464   0.6778   0.6778
     6.7631   6.8790   9.5655  10.1609  10.2688  10.2688  11.1871  12.7904
    12.7904  15.0049  16.1405  16.1405  16.2224  16.8630  16.8902  19.2718

          k = 0.0000 0.6700 0.0000 (  5273 PWs)   bands (ev):

   -23.7635 -11.2957  -7.8904  -7.8774  -7.8774   0.2485   0.6761   0.6761
     6.7468   6.9146   9.5803  10.1438  10.3232  10.3232  11.1293  12.7650
    12.7650  15.0659  16.0819  16.0819  16.2725  16.8431  16.9001  19.2611

          k = 0.0000 0.6800 0.0000 (  5273 PWs)   bands (ev):

   -23.7634 -11.2945  -7.8941  -7.8781  -7.8781   0.2509   0.6745   0.6745
     6.7310   6.9501   9.5950  10.1251  10.3774  10.3774  11.0730  12.7410
    12.7410  15.1251  16.0225  16.0225  16.3262  16.7969  16.9394  19.2509

          k = 0.0000 0.6900 0.0000 (  5273 PWs)   bands (ev):

   -23.7633 -11.2933  -7.8979  -7.8788  -7.8788   0.2537   0.6729   0.6729
     6.7157   6.9852   9.6095  10.1049  10.4313  10.4313  11.0181  12.7186
    12.7186  15.1825  15.9624  15.9624  16.3835  16.7517  16.9811  19.2412

          k = 0.0000 0.7000 0.0000 (  5273 PWs)   bands (ev):

   -23.7632 -11.2921  -7.9016  -7.8795  -7.8795   0.2567   0.6714   0.6714
     6.7008   7.0201   9.6238  10.0833  10.4848  10.4848  10.9645  12.6978
    12.6978  15.2379  15.9016  15.9016  16.4442  16.7074  17.0252  19.2319

          k = 0.0000 0.7100 0.0000 (  5265 PWs)   bands (ev):

   -23.7631 -11.2909  -7.9054  -7.8802  -7.8802   0.2599   0.6699   0.6699
     6.6863   7.0546   9.6380  10.0607  10.5377  10.5377  10.9123  12.6786
    12.6786  15.2913  15.8402  15.8402  16.5083  16.6642  17.0718  19.2230

          k = 0.0000 0.7200 0.0000 (  5265 PWs)   bands (ev):

   -23.7630 -11.2897  -7.9091  -7.8809  -7.8809   0.2634   0.6685   0.6685
     6.6723   7.0888   9.6519  10.0371  10.5900  10.5900  10.8613  12.6612
    12.6612  15.3424  15.7784  15.7784  16.5755  16.6221  17.1211  19.2145

          k = 0.0000 0.7300 0.0000 (  5273 PWs)   bands (ev):

   -23.7629 -11.2885  -7.9128  -7.8815  -7.8815   0.2672   0.6672   0.6672
     6.6588   7.1225   9.6655  10.0129  10.6415  10.6415  10.8115  12.6455
    12.6455  15.3912  15.7160  15.7160  16.5811  16.6458  17.1731  19.2063

          k = 0.0000 0.7400 0.0000 (  5273 PWs)   bands (ev):

   -23.7628 -11.2873  -7.9165  -7.8822  -7.8822   0.2710   0.6659   0.6659
     6.6457   7.1558   9.6789   9.9883  10.6922  10.6922  10.7629  12.6318
    12.6318  15.4377  15.6534  15.6534  16.5413  16.7189  17.2278  19.1985

          k = 0.0000 0.7500 0.0000 (  5273 PWs)   bands (ev):

   -23.7627 -11.2861  -7.9202  -7.8828  -7.8828   0.2751   0.6646   0.6646
     6.6331   7.1885   9.6920   9.9634  10.7154  10.7418  10.7418  12.6200
    12.6200  15.4818  15.5904  15.5904  16.5026  16.7949  17.2852  19.1911

          k = 0.0000 0.7600 0.0000 (  5273 PWs)   bands (ev):

   -23.7626 -11.2850  -7.9238  -7.8834  -7.8834   0.2792   0.6634   0.6634
     6.6210   7.2208   9.7048   9.9385  10.6689  10.7903  10.7903  12.6102
    12.6102  15.5235  15.5273  15.5273  16.4652  16.8734  17.3455  19.1840

          k = 0.0000 0.7700 0.0000 (  5281 PWs)   bands (ev):

   -23.7625 -11.2838  -7.9273  -7.8840  -7.8840   0.2835   0.6622   0.6622
     6.6093   7.2524   9.7172   9.9138  10.6234  10.8374  10.8374  12.6026
    12.6026  15.4641  15.4641  15.5628  16.4290  16.9543  17.4084  19.1773

          k = 0.0000 0.7800 0.0000 (  5281 PWs)   bands (ev):

   -23.7624 -11.2827  -7.9308  -7.8846  -7.8846   0.2878   0.6611   0.6611
     6.5982   7.2834   9.7293   9.8895  10.5789  10.8831  10.8831  12.5972
    12.5972  15.4009  15.4009  15.5997  16.3941  17.0376  17.4741  19.1709

          k = 0.0000 0.7900 0.0000 (  5281 PWs)   bands (ev):

   -23.7624 -11.2816  -7.9342  -7.8851  -7.8851   0.2922   0.6601   0.6601
     6.5875   7.3136   9.7411   9.8657  10.5355  10.9272  10.9272  12.5940
    12.5940  15.3378  15.3378  15.6343  16.3605  17.1229  17.5424  19.1648

          k = 0.0000 0.8000 0.0000 (  5281 PWs)   bands (ev):

   -23.7623 -11.2805  -7.9375  -7.8856  -7.8856   0.2966   0.6591   0.6591
     6.5772   7.3431   9.7524   9.8427  10.4929  10.9695  10.9695  12.5932
    12.5932  15.2750  15.2750  15.6665  16.3283  17.2102  17.6133  19.1590

          k = 0.0000 0.8100 0.0000 (  5281 PWs)   bands (ev):

   -23.7622 -11.2794  -7.9407  -7.8861  -7.8861   0.3010   0.6581   0.6581
     6.5675   7.3718   9.7634   9.8206  10.4514  11.0100  11.0100  12.5947
    12.5947  15.2126  15.2126  15.6966  16.2975  17.2993  17.6867  19.1536

          k = 0.0000 0.8200 0.0000 (  5281 PWs)   bands (ev):

   -23.7621 -11.2784  -7.9438  -7.8866  -7.8866   0.3053   0.6572   0.6572
     6.5583   7.3996   9.7739   9.7995  10.4109  11.0484  11.0484  12.5985
    12.5985  15.1508  15.1508  15.7244  16.2680  17.3899  17.7624  19.1484

          k = 0.0000 0.8300 0.0000 (  5281 PWs)   bands (ev):

   -23.7621 -11.2774  -7.9468  -7.8870  -7.8870   0.3096   0.6564   0.6564
     6.5495   7.4264   9.7797   9.7840  10.3714  11.0846  11.0846  12.6048
    12.6048  15.0896  15.0896  15.7502  16.2400  17.4820  17.8405  19.1436

          k = 0.0000 0.8400 0.0000 (  5281 PWs)   bands (ev):

   -23.7620 -11.2765  -7.9497  -7.8875  -7.8875   0.3137   0.6556   0.6556
     6.5413   7.4522   9.7611   9.7936  10.3330  11.1186  11.1186  12.6133
    12.6133  15.0293  15.0293  15.7740  16.2135  17.5751  17.9207  19.1390

          k = 0.0000 0.8500 0.0000 (  5293 PWs)   bands (ev):

   -23.7620 -11.2756  -7.9525  -7.8879  -7.8879   0.3178   0.6549   0.6549
     6.5335   7.4768   9.7439   9.8027  10.2958  11.1503  11.1503  12.6240
    12.6240  14.9701  14.9701  15.7958  16.1884  17.6691  18.0030  19.1347

          k = 0.0000 0.8600 0.0000 (  5293 PWs)   bands (ev):

   -23.7619 -11.2747  -7.9551  -7.8883  -7.8883   0.3217   0.6542   0.6542
     6.5262   7.5003   9.7282   9.8113  10.2598  11.1795  11.1795  12.6369
    12.6369  14.9122  14.9122  15.8159  16.1648  17.7638  18.0873  19.1308

          k = 0.0000 0.8700 0.0000 (  5294 PWs)   bands (ev):

   -23.7619 -11.2739  -7.9575  -7.8886  -7.8886   0.3255   0.6535   0.6535
     6.5194   7.5226   9.7141   9.8195  10.2250  11.2064  11.2064  12.6515
    12.6515  14.8558  14.8558  15.8342  16.1428  17.8588  18.1735  19.1271

          k = 0.0000 0.8800 0.0000 (  5290 PWs)   bands (ev):

   -23.7618 -11.2732  -7.9598  -7.8890  -7.8890   0.3290   0.6529   0.6529
     6.5132   7.5436   9.7015   9.8270  10.1917  11.2308  11.2308  12.6678
    12.6678  14.8012  14.8012  15.8508  16.1223  17.9538  18.2614  19.1237

          k = 0.0000 0.8900 0.0000 (  5298 PWs)   bands (ev):

   -23.7618 -11.2725  -7.9620  -7.8893  -7.8893   0.3324   0.6524   0.6524
     6.5074   7.5631   9.6905   9.8341  10.1599  11.2529  11.2529  12.6855
    12.6855  14.7487  14.7487  15.8658  16.1034  18.0482  18.3509  19.1205

          k = 0.0000 0.9000 0.0000 (  5294 PWs)   bands (ev):

   -23.7617 -11.2718  -7.9640  -7.8895  -7.8895   0.3356   0.6519   0.6519
     6.5021   7.5813   9.6812   9.8406  10.1297  11.2727  11.2727  12.7041
    12.7041  14.6986  14.6986  15.8793  16.0860  18.1418  18.4420  19.1177

          k = 0.0000 0.9100 0.0000 (  5290 PWs)   bands (ev):

   -23.7617 -11.2712  -7.9658  -7.8898  -7.8898   0.3385   0.6514   0.6514
     6.4973   7.5979   9.6734   9.8465  10.1014  11.2901  11.2901  12.7232
    12.7232  14.6514  14.6514  15.8913  16.0703  18.2338  18.5346  19.1151

          k = 0.0000 0.9200 0.0000 (  5290 PWs)   bands (ev):

   -23.7616 -11.2707  -7.9674  -7.8900  -7.8900   0.3411   0.6510   0.6510
     6.4930   7.6129   9.6671   9.8518  10.0751  11.3054  11.3054  12.7424
    12.7424  14.6073  14.6073  15.9019  16.0561  18.3234  18.6285  19.1128

          k = 0.0000 0.9300 0.0000 (  5290 PWs)   bands (ev):

   -23.7616 -11.2702  -7.9689  -7.8902  -7.8902   0.3435   0.6507   0.6507
     6.4892   7.6263   9.6621   9.8565  10.0509  11.3186  11.3186  12.7611
    12.7611  14.5668  14.5668  15.9111  16.0436  18.4098  18.7237  19.1108

          k = 0.0000 0.9400 0.0000 (  5290 PWs)   bands (ev):

   -23.7616 -11.2698  -7.9702  -7.8904  -7.8904   0.3456   0.6503   0.6503
     6.4859   7.6381   9.6585   9.8606  10.0292  11.3298  11.3298  12.7789
    12.7789  14.5304  14.5304  15.9190  16.0327  18.4917  18.8200  19.1090

          k = 0.0000 0.9500 0.0000 (  5282 PWs)   bands (ev):

   -23.7616 -11.2694  -7.9712  -7.8906  -7.8906   0.3473   0.6501   0.6501
     6.4832   7.6481   9.6559   9.8641  10.0102  11.3391  11.3391  12.7952
    12.7952  14.4986  14.4986  15.9257  16.0235  18.5676  18.9174  19.1076

          k = 0.0000 0.9600 0.0000 (  5290 PWs)   bands (ev):

   -23.7616 -11.2691  -7.9721  -7.8907  -7.8907   0.3488   0.6499   0.6499
     6.4809   7.6563   9.6542   9.8670   9.9941  11.3466  11.3466  12.8094
    12.8094  14.4717  14.4717  15.9311  16.0160  18.6354  19.0156  19.1063

          k = 0.0000 0.9700 0.0000 (  5290 PWs)   bands (ev):

   -23.7615 -11.2689  -7.9728  -7.8908  -7.8908   0.3500   0.6497   0.6497
     6.4791   7.6628   9.6532   9.8692   9.9812  11.3524  11.3524  12.8211
    12.8211  14.4503  14.4503  15.9352  16.0101  18.6927  19.1054  19.1145

          k = 0.0000 0.9800 0.0000 (  5302 PWs)   bands (ev):

   -23.7615 -11.2687  -7.9733  -7.8908  -7.8908   0.3508   0.6496   0.6496
     6.4779   7.6674   9.6527   9.8708   9.9718  11.3564  11.3564  12.8298
    12.8298  14.4347  14.4347  15.9382  16.0059  18.7367  19.1047  19.2133

          k = 0.0000 0.9900 0.0000 (  5294 PWs)   bands (ev):

   -23.7615 -11.2686  -7.9736  -7.8909  -7.8909   0.3513   0.6495   0.6495
     6.4771   7.6702   9.6524   9.8717   9.9661  11.3588  11.3588  12.8351
    12.8351  14.4252  14.4252  15.9400  16.0034  18.7646  19.1043  19.3092

          k = 0.0000 1.0000 0.0000 (  5290 PWs)   bands (ev):

   -23.7615 -11.2686  -7.9737  -7.8909  -7.8909   0.3515   0.6495   0.6495
     6.4769   7.6711   9.6523   9.8721   9.9641  11.3596  11.3596  12.8369
    12.8369  14.4221  14.4221  15.9406  16.0025  18.7742  19.1042  19.3725

     Writing output data file ./rbbr.save/
 
     init_run     :      0.53s CPU      0.88s WALL (       1 calls)
     electrons    :      6.77s CPU      6.93s WALL (       1 calls)

     Called by init_run:
     wfcinit      :      0.00s CPU      0.01s WALL (       1 calls)
     wfcinit:atom :      0.00s CPU      0.00s WALL (       3 calls)
     wfcinit:wfcr :      0.17s CPU      0.18s WALL (       3 calls)
     potinit      :      0.14s CPU      0.44s WALL (       1 calls)
     hinit0       :      0.35s CPU      0.38s WALL (       1 calls)

     Called by electrons:
     c_bands      :      6.77s CPU      6.93s WALL (       1 calls)
     v_of_rho     :      0.05s CPU      0.07s WALL (       1 calls)
     v_h          :      0.00s CPU      0.00s WALL (       1 calls)
     v_xc         :      0.05s CPU      0.06s WALL (       1 calls)
     newd         :      0.00s CPU      0.01s WALL (       1 calls)
     PAW_pot      :      0.04s CPU      0.05s WALL (       1 calls)

     Called by c_bands:
     init_us_2    :      0.00s CPU      0.01s WALL (       3 calls)
     cegterg      :      6.28s CPU      6.41s WALL (      11 calls)

     Called by sum_band:

     Called by *egterg:
     cdiaghg      :      0.13s CPU      0.13s WALL (     193 calls)
     cegterg:over :      0.32s CPU      0.32s WALL (     190 calls)
     cegterg:upda :      0.27s CPU      0.27s WALL (     190 calls)
     cegterg:last :      0.58s CPU      0.59s WALL (     103 calls)
     h_psi        :      4.86s CPU      4.96s WALL (     204 calls)
     s_psi        :      0.15s CPU      0.15s WALL (     204 calls)
     g_psi        :      0.03s CPU      0.03s WALL (     190 calls)

     Called by h_psi:
     h_psi:calbec :      0.11s CPU      0.11s WALL (     204 calls)
     vloc_psi     :      4.55s CPU      4.62s WALL (     204 calls)
     add_vuspsi   :      0.17s CPU      0.17s WALL (     204 calls)

     General routines
     calbec       :      0.11s CPU      0.11s WALL (     204 calls)
     fft          :      0.01s CPU      0.04s WALL (      12 calls)
     fftw         :      3.67s CPU      3.72s WALL (    4600 calls)
     davcio       :      0.00s CPU      0.01s WALL (       6 calls)
 
     Parallel routines

     PAW routines
     PAW_pot      :      0.04s CPU      0.05s WALL (       1 calls)
 
     PWSCF        :      8.39s CPU      9.36s WALL

 
   This run was terminated on:  12: 5:53  23Jun2022            

=------------------------------------------------------------------------------=
   JOB DONE.
=------------------------------------------------------------------------------=
