
     Program BANDS v.6.6 starts on 23Jun2022 at 12: 5:55 

     This program is part of the open-source Quantum ESPRESSO suite
     for quantum simulation of materials; please cite
         "P. Giannozzi et al., J. Phys.:Condens. Matter 21 395502 (2009);
         "P. Giannozzi et al., J. Phys.:Condens. Matter 29 465901 (2017);
          URL http://www.quantum-espresso.org", 
     in publications or presentations arising from this work. More details at
     http://www.quantum-espresso.org/quote

     Parallel version (MPI), running on    40 processors

     MPI processes distributed on     1 nodes
     R & G space division:  proc/nbgrp/npool/nimage =      40
     Fft bands division:     nmany     =       1

     Reading xml data from directory:

     ./rbbr.save/
     file Rb.pbe-spn-kjpaw_psl.1.0.0.UPF: wavefunction(s)  4S renormalized
     file Br.pbe-n-kjpaw_psl.1.0.0.UPF: wavefunction(s)  4S 4P renormalized

     IMPORTANT: XC functional enforced from input :
     Exchange-correlation= PBE
                           (   1   4   3   4   0   0   0)
     Any further DFT definition will be discarded
     Please, verify this is what you really want

 
     Parallelization info
     --------------------
     sticks:   dense  smooth     PW     G-vecs:    dense   smooth      PW
     Min          39      39     10                 1049     1049     152
     Max          40      40     11                 1054     1054     157
     Sum        1597    1597    439                42087    42087    6231
 

     Check: negative core charge=   -0.000002
     Reading collected, re-writing distributed wavefunctions
     high-symmetry point:  0.0000 0.0000 0.0000   x coordinate   0.0000
     high-symmetry point:  0.0000 1.0000 0.0000   x coordinate   1.0000

     Plottable bands (eV) written to file seg1.dat.gnu
     Bands written to file seg1.dat

 **************************************************************************

                    xk=(   0.00000,   0.00000,   0.00000  )

     point group O_h (m-3m) 
     there are 10 classes
     the character table:

       E     8C3   3C2   6C4   6C2'  i     8S6   3s_h  6S4   6s_d 
A_1g   1.00  1.00  1.00  1.00  1.00  1.00  1.00  1.00  1.00  1.00
A_2g   1.00  1.00  1.00 -1.00 -1.00  1.00  1.00  1.00 -1.00 -1.00
E_g    2.00 -1.00  2.00  0.00  0.00  2.00 -1.00  2.00  0.00  0.00
T_1g   3.00  0.00 -1.00  1.00 -1.00  3.00  0.00 -1.00  1.00 -1.00
T_2g   3.00  0.00 -1.00 -1.00  1.00  3.00  0.00 -1.00 -1.00  1.00
A_1u   1.00  1.00  1.00  1.00  1.00 -1.00 -1.00 -1.00 -1.00 -1.00
A_2u   1.00  1.00  1.00 -1.00 -1.00 -1.00 -1.00 -1.00  1.00  1.00
E_u    2.00 -1.00  2.00  0.00  0.00 -2.00  1.00 -2.00  0.00  0.00
T_1u   3.00  0.00 -1.00  1.00 -1.00 -3.00  0.00  1.00 -1.00  1.00
T_2u   3.00  0.00 -1.00 -1.00  1.00 -3.00  0.00  1.00  1.00 -1.00

     the symmetry operations in each class and the name of the first element:

     E        1
                                                                 
     8C3     17   19   20   18   24   21   22   23
                                                                 
     3C2      2    4    3
                                                                 
     6C4      7    8   15   16   12   11
                                                                 
     6C2'     5    6   14   13   10    9
                                                                 
     i       25
                                                                 
     8S6     41   43   44   42   48   45   46   47
                                                                 
     3s_h    26   28   27
                                                                 
     6S4     31   32   39   40   36   35
                                                                 
     6s_d    29   30   38   37   34   33
                                                                 

     Band symmetry, O_h (m-3m)  point group:

     e(  1 -  1) =    -23.76974  eV     1   --> A_1g G_1   G_1+
     e(  2 -  2) =    -11.31354  eV     1   --> A_1g G_1   G_1+
     e(  3 -  5) =     -7.83633  eV     3   --> T_1u G_15  G_4-
     e(  6 -  8) =      0.80296  eV     3   --> T_1u G_15  G_4-
     e(  9 -  9) =      4.99689  eV     1   --> A_1g G_1   G_1+
     e( 10 - 12) =      8.05863  eV     3   --> T_2g G_25' G_5+
     e( 13 - 14) =      8.90028  eV     2   --> E_g  G_12  G_3+
     e( 15 - 15) =     11.61627  eV     1   --> A_2u G_2'  G_2-
     e( 16 - 18) =     16.12466  eV     3   --> T_2g G_25' G_5+
     e( 19 - 21) =     16.25698  eV     3   --> T_1u G_15  G_4-
     e( 22 - 23) =     18.93986  eV     2   --> E_g  G_12  G_3+
     e( 24 - 24) =     19.01394  eV     1   -->   ?

 **************************************************************************

 **************************************************************************

                    xk=(   0.00000,   0.01000,   0.00000  )

     point group C_4v (4mm) 
     there are  5 classes
     the character table:

       E     2C4   C2    2s_v  2s_d 
A_1    1.00  1.00  1.00  1.00  1.00
A_2    1.00  1.00  1.00 -1.00 -1.00
B_1    1.00 -1.00  1.00  1.00 -1.00
B_2    1.00 -1.00  1.00 -1.00  1.00
E      2.00  0.00 -2.00  0.00  0.00

     the symmetry operations in each class and the name of the first element:

     E        1
                                                                 
     2C4      3    4
                                                                 
     C2       2
                                                                 
     2s_v     5    6
                                                                 
     2s_d     7    8
                                                                 

     Band symmetry, C_4v (4mm)  point group:

     e(  1 -  1) =    -23.76974  eV     1   --> A_1  G_1 D_1   
     e(  2 -  2) =    -11.31355  eV     1   --> A_1  G_1 D_1   
     e(  3 -  5) =     -7.83634  eV     3   --> A_1  G_1 D_1   
     e(  3 -  5) =     -7.83634  eV     3   --> E    G_5 D_5   
     e(  6 -  6) =      0.80247  eV     1   --> A_1  G_1 D_1   
     e(  7 -  8) =      0.80290  eV     2   --> E    G_5 D_5   
     e(  9 -  9) =      4.99768  eV     1   --> A_1  G_1 D_1   
     e( 10 - 10) =      8.05791  eV     1   --> B_2  G_4 D_2'  
     e( 11 - 12) =      8.05922  eV     2   --> E    G_5 D_5   
     e( 13 - 13) =      8.90047  eV     1   --> B_1  G_3 D_2   
     e( 14 - 14) =      8.90099  eV     1   --> A_1  G_1 D_1   
     e( 15 - 15) =     11.61753  eV     1   --> B_2  G_4 D_2'  
     e( 16 - 17) =     16.10260  eV     2   --> E    G_5 D_5   
     e( 18 - 18) =     16.12479  eV     1   --> B_2  G_4 D_2'  
     e( 19 - 19) =     16.25287  eV     1   --> A_1  G_1 D_1   
     e( 20 - 21) =     16.27843  eV     2   --> E    G_5 D_5   
     e( 22 - 22) =     18.90885  eV     1   --> A_1  G_1 D_1   
     e( 23 - 23) =     18.93956  eV     1   --> B_1  G_3 D_2   
     e( 24 - 24) =     19.01396  eV     1   -->   ?

 **************************************************************************

 **************************************************************************

                    xk=(   0.00000,   0.02000,   0.00000  )

     Band symmetry, C_4v (4mm)  point group:

     e(  1 -  1) =    -23.76973  eV     1   --> A_1  G_1 D_1   
     e(  2 -  2) =    -11.31357  eV     1   --> A_1  G_1 D_1   
     e(  3 -  4) =     -7.83638  eV     2   --> E    G_5 D_5   
     e(  5 -  5) =     -7.83620  eV     1   --> A_1  G_1 D_1   
     e(  6 -  6) =      0.80101  eV     1   --> A_1  G_1 D_1   
     e(  7 -  8) =      0.80274  eV     2   --> E    G_5 D_5   
     e(  9 -  9) =      5.00006  eV     1   --> A_1  G_1 D_1   
     e( 10 - 10) =      8.05576  eV     1   --> B_2  G_4 D_2'  
     e( 11 - 12) =      8.06099  eV     2   --> E    G_5 D_5   
     e( 13 - 13) =      8.90103  eV     1   --> B_1  G_3 D_2   
     e( 14 - 14) =      8.90314  eV     1   --> A_1  G_1 D_1   
     e( 15 - 15) =     11.62133  eV     1   --> B_2  G_4 D_2'  
     e( 16 - 17) =     16.05629  eV     2   --> E    G_5 D_5   
     e( 18 - 18) =     16.12519  eV     1   --> B_2  G_4 D_2'  
     e( 19 - 19) =     16.24060  eV     1   --> A_1  G_1 D_1   
     e( 20 - 21) =     16.32290  eV     2   --> E    G_5 D_5   
     e( 22 - 22) =     18.85631  eV     1   --> A_1  G_1 D_1   
     e( 23 - 23) =     18.93863  eV     1   --> B_1  G_3 D_2   
     e( 24 - 24) =     19.01400  eV     1   -->   ?

 **************************************************************************

 **************************************************************************

                    xk=(   0.00000,   0.03000,   0.00000  )

     Band symmetry, C_4v (4mm)  point group:

     e(  1 -  1) =    -23.76972  eV     1   --> A_1  G_1 D_1   
     e(  2 -  2) =    -11.31362  eV     1   --> A_1  G_1 D_1   
     e(  3 -  4) =     -7.83644  eV     2   --> E    G_5 D_5   
     e(  5 -  5) =     -7.83604  eV     1   --> A_1  G_1 D_1   
     e(  6 -  6) =      0.79858  eV     1   --> A_1  G_1 D_1   
     e(  7 -  8) =      0.80247  eV     2   --> E    G_5 D_5   
     e(  9 -  9) =      5.00401  eV     1   --> A_1  G_1 D_1   
     e( 10 - 10) =      8.05219  eV     1   --> B_2  G_4 D_2'  
     e( 11 - 12) =      8.06394  eV     2   --> E    G_5 D_5   
     e( 13 - 13) =      8.90197  eV     1   --> B_1  G_3 D_2   
     e( 14 - 14) =      8.90670  eV     1   --> A_1  G_1 D_1   
     e( 15 - 15) =     11.62765  eV     1   --> B_2  G_4 D_2'  
     e( 16 - 17) =     16.00243  eV     2   --> E    G_5 D_5   
     e( 18 - 18) =     16.12585  eV     1   --> B_2  G_4 D_2'  
     e( 19 - 19) =     16.22037  eV     1   --> A_1  G_1 D_1   
     e( 20 - 21) =     16.37370  eV     2   --> E    G_5 D_5   
     e( 22 - 22) =     18.79962  eV     1   --> A_1  G_1 D_1   
     e( 23 - 23) =     18.93709  eV     1   --> B_1  G_3 D_2   
     e( 24 - 24) =     19.01408  eV     1   -->   ?

 **************************************************************************

 **************************************************************************

                    xk=(   0.00000,   0.04000,   0.00000  )

     Band symmetry, C_4v (4mm)  point group:

     e(  1 -  1) =    -23.76971  eV     1   --> A_1  G_1 D_1   
     e(  2 -  2) =    -11.31369  eV     1   --> A_1  G_1 D_1   
     e(  3 -  4) =     -7.83654  eV     2   --> E    G_5 D_5   
     e(  5 -  5) =     -7.83582  eV     1   --> A_1  G_1 D_1   
     e(  6 -  6) =      0.79519  eV     1   --> A_1  G_1 D_1   
     e(  7 -  8) =      0.80209  eV     2   --> E    G_5 D_5   
     e(  9 -  9) =      5.00952  eV     1   --> A_1  G_1 D_1   
     e( 10 - 10) =      8.04722  eV     1   --> B_2  G_4 D_2'  
     e( 11 - 12) =      8.06808  eV     2   --> E    G_5 D_5   
     e( 13 - 13) =      8.90328  eV     1   --> B_1  G_3 D_2   
     e( 14 - 14) =      8.91169  eV     1   --> A_1  G_1 D_1   
     e( 15 - 15) =     11.63648  eV     1   --> B_2  G_4 D_2'  
     e( 16 - 17) =     15.94565  eV     2   --> E    G_5 D_5   
     e( 18 - 18) =     16.12677  eV     1   --> B_2  G_4 D_2'  
     e( 19 - 19) =     16.19247  eV     1   --> A_1  G_1 D_1   
     e( 20 - 21) =     16.42619  eV     2   --> E    G_5 D_5   
     e( 22 - 22) =     18.74083  eV     1   --> A_1  G_1 D_1   
     e( 23 - 23) =     18.93493  eV     1   --> B_1  G_3 D_2   
     e( 24 - 24) =     19.01421  eV     1   -->   ?

 **************************************************************************

 **************************************************************************

                    xk=(   0.00000,   0.05000,   0.00000  )

     Band symmetry, C_4v (4mm)  point group:

     e(  1 -  1) =    -23.76969  eV     1   --> A_1  G_1 D_1   
     e(  2 -  2) =    -11.31377  eV     1   --> A_1  G_1 D_1   
     e(  3 -  4) =     -7.83666  eV     2   --> E    G_5 D_5   
     e(  5 -  5) =     -7.83554  eV     1   --> A_1  G_1 D_1   
     e(  6 -  6) =      0.79087  eV     1   --> A_1  G_1 D_1   
     e(  7 -  8) =      0.80160  eV     2   --> E    G_5 D_5   
     e(  9 -  9) =      5.01658  eV     1   --> A_1  G_1 D_1   
     e( 10 - 10) =      8.04087  eV     1   --> B_2  G_4 D_2'  
     e( 11 - 12) =      8.07339  eV     2   --> E    G_5 D_5   
     e( 13 - 13) =      8.90496  eV     1   --> B_1  G_3 D_2   
     e( 14 - 14) =      8.91809  eV     1   --> A_1  G_1 D_1   
     e( 15 - 15) =     11.64778  eV     1   --> B_2  G_4 D_2'  
     e( 16 - 17) =     15.88737  eV     2   --> E    G_5 D_5   
     e( 18 - 18) =     16.12797  eV     1   --> B_2  G_4 D_2'  
     e( 19 - 19) =     16.15728  eV     1   --> A_1  G_1 D_1   
     e( 20 - 21) =     16.47891  eV     2   --> E    G_5 D_5   
     e( 22 - 22) =     18.68030  eV     1   --> A_1  G_1 D_1   
     e( 23 - 23) =     18.93214  eV     1   --> B_1  G_3 D_2   
     e( 24 - 24) =     19.01440  eV     1   -->   ?

 **************************************************************************

 **************************************************************************

                    xk=(   0.00000,   0.06000,   0.00000  )

     Band symmetry, C_4v (4mm)  point group:

     e(  1 -  1) =    -23.76967  eV     1   --> A_1  G_1 D_1   
     e(  2 -  2) =    -11.31387  eV     1   --> A_1  G_1 D_1   
     e(  3 -  4) =     -7.83680  eV     2   --> E    G_5 D_5   
     e(  5 -  5) =     -7.83520  eV     1   --> A_1  G_1 D_1   
     e(  6 -  6) =      0.78563  eV     1   --> A_1  G_1 D_1   
     e(  7 -  8) =      0.80101  eV     2   --> E    G_5 D_5   
     e(  9 -  9) =      5.02517  eV     1   --> A_1  G_1 D_1   
     e( 10 - 10) =      8.03316  eV     1   --> B_2  G_4 D_2'  
     e( 11 - 12) =      8.07988  eV     2   --> E    G_5 D_5   
     e( 13 - 13) =      8.90702  eV     1   --> B_1  G_3 D_2   
     e( 14 - 14) =      8.92591  eV     1   --> A_1  G_1 D_1   
     e( 15 - 15) =     11.66154  eV     1   --> B_2  G_4 D_2'  
     e( 16 - 17) =     15.82817  eV     2   --> E    G_5 D_5   
     e( 18 - 18) =     16.11526  eV     1   --> A_1  G_1 D_1   
     e( 19 - 19) =     16.12942  eV     1   --> B_2  G_4 D_2'  
     e( 20 - 21) =     16.53126  eV     2   --> E    G_5 D_5   
     e( 22 - 22) =     18.61807  eV     1   --> A_1  G_1 D_1   
     e( 23 - 23) =     18.92871  eV     1   --> B_1  G_3 D_2   
     e( 24 - 24) =     19.01469  eV     1   -->   ?

 **************************************************************************

 **************************************************************************

                    xk=(   0.00000,   0.07000,   0.00000  )

     Band symmetry, C_4v (4mm)  point group:

     e(  1 -  1) =    -23.76964  eV     1   --> A_1  G_1 D_1   
     e(  2 -  2) =    -11.31399  eV     1   --> A_1  G_1 D_1   
     e(  3 -  4) =     -7.83697  eV     2   --> E    G_5 D_5   
     e(  5 -  5) =     -7.83481  eV     1   --> A_1  G_1 D_1   
     e(  6 -  6) =      0.77950  eV     1   --> A_1  G_1 D_1   
     e(  7 -  8) =      0.80031  eV     2   --> E    G_5 D_5   
     e(  9 -  9) =      5.03525  eV     1   --> A_1  G_1 D_1   
     e( 10 - 10) =      8.02414  eV     1   --> B_2  G_4 D_2'  
     e( 11 - 12) =      8.08754  eV     2   --> E    G_5 D_5   
     e( 13 - 13) =      8.90945  eV     1   --> B_1  G_3 D_2   
     e( 14 - 14) =      8.93512  eV     1   --> A_1  G_1 D_1   
     e( 15 - 15) =     11.67771  eV     1   --> B_2  G_4 D_2'  
     e( 16 - 17) =     15.76834  eV     2   --> E    G_5 D_5   
     e( 18 - 18) =     16.06691  eV     1   --> A_1  G_1 D_1   
     e( 19 - 19) =     16.13114  eV     1   --> B_2  G_4 D_2'  
     e( 20 - 21) =     16.58294  eV     2   --> E    G_5 D_5   
     e( 22 - 22) =     18.55418  eV     1   --> A_1  G_1 D_1   
     e( 23 - 23) =     18.92463  eV     1   --> B_1  G_3 D_2   
     e( 24 - 24) =     19.01509  eV     1   -->   ?

 **************************************************************************

 **************************************************************************

                    xk=(   0.00000,   0.08000,   0.00000  )

     Band symmetry, C_4v (4mm)  point group:

     e(  1 -  1) =    -23.76961  eV     1   --> A_1  G_1 D_1   
     e(  2 -  2) =    -11.31412  eV     1   --> A_1  G_1 D_1   
     e(  3 -  4) =     -7.83717  eV     2   --> E    G_5 D_5   
     e(  5 -  5) =     -7.83436  eV     1   --> A_1  G_1 D_1   
     e(  6 -  6) =      0.77250  eV     1   --> A_1  G_1 D_1   
     e(  7 -  8) =      0.79951  eV     2   --> E    G_5 D_5   
     e(  9 -  9) =      5.04680  eV     1   --> A_1  G_1 D_1   
     e( 10 - 10) =      8.01384  eV     1   --> B_2  G_4 D_2'  
     e( 11 - 12) =      8.09638  eV     2   --> E    G_5 D_5   
     e( 13 - 13) =      8.91224  eV     1   --> B_1  G_3 D_2   
     e( 14 - 14) =      8.94573  eV     1   --> A_1  G_1 D_1   
     e( 15 - 15) =     11.69625  eV     1   --> B_2  G_4 D_2'  
     e( 16 - 17) =     15.70805  eV     2   --> E    G_5 D_5   
     e( 18 - 18) =     16.01275  eV     1   --> A_1  G_1 D_1   
     e( 19 - 19) =     16.13312  eV     1   --> B_2  G_4 D_2'  
     e( 20 - 21) =     16.63374  eV     2   --> E    G_5 D_5   
     e( 22 - 22) =     18.48867  eV     1   --> A_1  G_1 D_1   
     e( 23 - 23) =     18.91990  eV     1   --> B_1  G_3 D_2   
     e( 24 - 24) =     19.01564  eV     1   -->   ?

 **************************************************************************

 **************************************************************************

                    xk=(   0.00000,   0.09000,   0.00000  )

     Band symmetry, C_4v (4mm)  point group:

     e(  1 -  1) =    -23.76957  eV     1   --> A_1  G_1 D_1   
     e(  2 -  2) =    -11.31427  eV     1   --> A_1  G_1 D_1   
     e(  3 -  4) =     -7.83739  eV     2   --> E    G_5 D_5   
     e(  5 -  5) =     -7.83386  eV     1   --> A_1  G_1 D_1   
     e(  6 -  6) =      0.76468  eV     1   --> A_1  G_1 D_1   
     e(  7 -  8) =      0.79861  eV     2   --> E    G_5 D_5   
     e(  9 -  9) =      5.05979  eV     1   --> A_1  G_1 D_1   
     e( 10 - 10) =      8.00230  eV     1   --> B_2  G_4 D_2'  
     e( 11 - 12) =      8.10638  eV     2   --> E    G_5 D_5   
     e( 13 - 13) =      8.91541  eV     1   --> B_1  G_3 D_2   
     e( 14 - 14) =      8.95772  eV     1   --> A_1  G_1 D_1   
     e( 15 - 15) =     11.71713  eV     1   --> B_2  G_4 D_2'  
     e( 16 - 17) =     15.64741  eV     2   --> E    G_5 D_5   
     e( 18 - 18) =     15.95330  eV     1   --> A_1  G_1 D_1   
     e( 19 - 19) =     16.13537  eV     1   --> B_2  G_4 D_2'  
     e( 20 - 21) =     16.68351  eV     2   --> E    G_5 D_5   
     e( 22 - 22) =     18.42161  eV     1   --> A_1  G_1 D_1   
     e( 23 - 23) =     18.91449  eV     1   --> B_1  G_3 D_2   
     e( 24 - 24) =     19.01637  eV     1   -->   ?

 **************************************************************************

 **************************************************************************

                    xk=(   0.00000,   0.10000,   0.00000  )

     Band symmetry, C_4v (4mm)  point group:

     e(  1 -  1) =    -23.76953  eV     1   --> A_1  G_1 D_1   
     e(  2 -  2) =    -11.31443  eV     1   --> A_1  G_1 D_1   
     e(  3 -  4) =     -7.83764  eV     2   --> E    G_5 D_5   
     e(  5 -  5) =     -7.83332  eV     1   --> A_1  G_1 D_1   
     e(  6 -  6) =      0.75607  eV     1   --> A_1  G_1 D_1   
     e(  7 -  8) =      0.79760  eV     2   --> E    G_5 D_5   
     e(  9 -  9) =      5.07418  eV     1   --> A_1  G_1 D_1   
     e( 10 - 10) =      7.98958  eV     1   --> B_2  G_4 D_2'  
     e( 11 - 12) =      8.11754  eV     2   --> E    G_5 D_5   
     e( 13 - 13) =      8.91895  eV     1   --> B_1  G_3 D_2   
     e( 14 - 14) =      8.97108  eV     1   --> A_1  G_1 D_1   
     e( 15 - 15) =     11.74029  eV     1   --> B_2  G_4 D_2'  
     e( 16 - 17) =     15.58651  eV     2   --> E    G_5 D_5   
     e( 18 - 18) =     15.88907  eV     1   --> A_1  G_1 D_1   
     e( 19 - 19) =     16.13789  eV     1   --> B_2  G_4 D_2'  
     e( 20 - 21) =     16.73212  eV     2   --> E    G_5 D_5   
     e( 22 - 22) =     18.35310  eV     1   --> A_1  G_1 D_1   
     e( 23 - 23) =     18.90839  eV     1   --> B_1  G_3 D_2   
     e( 24 - 24) =     19.01734  eV     1   -->   ?

 **************************************************************************

 **************************************************************************

                    xk=(   0.00000,   0.11000,   0.00000  )

     Band symmetry, C_4v (4mm)  point group:

     e(  1 -  1) =    -23.76949  eV     1   --> A_1  G_1 D_1   
     e(  2 -  2) =    -11.31460  eV     1   --> A_1  G_1 D_1   
     e(  3 -  4) =     -7.83791  eV     2   --> E    G_5 D_5   
     e(  5 -  5) =     -7.83273  eV     1   --> A_1  G_1 D_1   
     e(  6 -  6) =      0.74670  eV     1   --> A_1  G_1 D_1   
     e(  7 -  8) =      0.79650  eV     2   --> E    G_5 D_5   
     e(  9 -  9) =      5.08992  eV     1   --> A_1  G_1 D_1   
     e( 10 - 10) =      7.97572  eV     1   --> B_2  G_4 D_2'  
     e( 11 - 12) =      8.12986  eV     2   --> E    G_5 D_5   
     e( 13 - 13) =      8.92285  eV     1   --> B_1  G_3 D_2   
     e( 14 - 14) =      8.98579  eV     1   --> A_1  G_1 D_1   
     e( 15 - 15) =     11.76567  eV     1   --> B_2  G_4 D_2'  
     e( 16 - 17) =     15.52542  eV     2   --> E    G_5 D_5   
     e( 18 - 18) =     15.82056  eV     1   --> A_1  G_1 D_1   
     e( 19 - 19) =     16.14067  eV     1   --> B_2  G_4 D_2'  
     e( 20 - 21) =     16.77945  eV     2   --> E    G_5 D_5   
     e( 22 - 22) =     18.28325  eV     1   --> A_1  G_1 D_1   
     e( 23 - 23) =     18.90158  eV     1   --> B_1  G_3 D_2   
     e( 24 - 24) =     19.01858  eV     1   -->   ?

 **************************************************************************

 **************************************************************************

                    xk=(   0.00000,   0.12000,   0.00000  )

     Band symmetry, C_4v (4mm)  point group:

     e(  1 -  1) =    -23.76944  eV     1   --> A_1  G_1 D_1   
     e(  2 -  2) =    -11.31479  eV     1   --> A_1  G_1 D_1   
     e(  3 -  4) =     -7.83821  eV     2   --> E    G_5 D_5   
     e(  5 -  5) =     -7.83210  eV     1   --> A_1  G_1 D_1   
     e(  6 -  6) =      0.73662  eV     1   --> A_1  G_1 D_1   
     e(  7 -  8) =      0.79530  eV     2   --> E    G_5 D_5   
     e(  9 -  9) =      5.10697  eV     1   --> A_1  G_1 D_1   
     e( 10 - 10) =      7.96077  eV     1   --> B_2  G_4 D_2'  
     e( 11 - 12) =      8.14334  eV     2   --> E    G_5 D_5   
     e( 13 - 13) =      8.92712  eV     1   --> B_1  G_3 D_2   
     e( 14 - 14) =      9.00184  eV     1   --> A_1  G_1 D_1   
     e( 15 - 15) =     11.79324  eV     1   --> B_2  G_4 D_2'  
     e( 16 - 17) =     15.46420  eV     2   --> E    G_5 D_5   
     e( 18 - 18) =     15.74821  eV     1   --> A_1  G_1 D_1   
     e( 19 - 19) =     16.14371  eV     1   --> B_2  G_4 D_2'  
     e( 20 - 21) =     16.82540  eV     2   --> E    G_5 D_5   
     e( 22 - 22) =     18.21220  eV     1   --> A_1  G_1 D_1   
     e( 23 - 23) =     18.89404  eV     1   --> B_1  G_3 D_2   
     e( 24 - 24) =     19.02014  eV     1   -->   ?

 **************************************************************************

 **************************************************************************

                    xk=(   0.00000,   0.13000,   0.00000  )

     Band symmetry, C_4v (4mm)  point group:

     e(  1 -  1) =    -23.76939  eV     1   --> A_1  G_1 D_1   
     e(  2 -  2) =    -11.31498  eV     1   --> A_1  G_1 D_1   
     e(  3 -  4) =     -7.83853  eV     2   --> E    G_5 D_5   
     e(  5 -  5) =     -7.83144  eV     1   --> A_1  G_1 D_1   
     e(  6 -  6) =      0.72588  eV     1   --> A_1  G_1 D_1   
     e(  7 -  8) =      0.79401  eV     2   --> E    G_5 D_5   
     e(  9 -  9) =      5.12530  eV     1   --> A_1  G_1 D_1   
     e( 10 - 10) =      7.94480  eV     1   --> B_2  G_4 D_2'  
     e( 11 - 12) =      8.15796  eV     2   --> E    G_5 D_5   
     e( 13 - 13) =      8.93175  eV     1   --> B_1  G_3 D_2   
     e( 14 - 14) =      9.01920  eV     1   --> A_1  G_1 D_1   
     e( 15 - 15) =     11.82291  eV     1   --> B_2  G_4 D_2'  
     e( 16 - 17) =     15.40289  eV     2   --> E    G_5 D_5   
     e( 18 - 18) =     15.67247  eV     1   --> A_1  G_1 D_1   
     e( 19 - 19) =     16.14702  eV     1   --> B_2  G_4 D_2'  
     e( 20 - 21) =     16.86986  eV     2   --> E    G_5 D_5   
     e( 22 - 22) =     18.14010  eV     1   --> A_1  G_1 D_1   
     e( 23 - 23) =     18.88575  eV     1   --> B_1  G_3 D_2   
     e( 24 - 24) =     19.02209  eV     1   -->   ?

 **************************************************************************

 **************************************************************************

                    xk=(   0.00000,   0.14000,   0.00000  )

     Band symmetry, C_4v (4mm)  point group:

     e(  1 -  1) =    -23.76934  eV     1   --> A_1  G_1 D_1   
     e(  2 -  2) =    -11.31518  eV     1   --> A_1  G_1 D_1   
     e(  3 -  4) =     -7.83888  eV     2   --> E    G_5 D_5   
     e(  5 -  5) =     -7.83076  eV     1   --> A_1  G_1 D_1   
     e(  6 -  6) =      0.71451  eV     1   --> A_1  G_1 D_1   
     e(  7 -  8) =      0.79263  eV     2   --> E    G_5 D_5   
     e(  9 -  9) =      5.14484  eV     1   --> A_1  G_1 D_1   
     e( 10 - 10) =      7.92786  eV     1   --> B_2  G_4 D_2'  
     e( 11 - 12) =      8.17373  eV     2   --> E    G_5 D_5   
     e( 13 - 13) =      8.93674  eV     1   --> B_1  G_3 D_2   
     e( 14 - 14) =      9.03787  eV     1   --> A_1  G_1 D_1   
     e( 15 - 15) =     11.85465  eV     1   --> B_2  G_4 D_2'  
     e( 16 - 17) =     15.34154  eV     2   --> E    G_5 D_5   
     e( 18 - 18) =     15.59371  eV     1   --> A_1  G_1 D_1   
     e( 19 - 19) =     16.15059  eV     1   --> B_2  G_4 D_2'  
     e( 20 - 21) =     16.91272  eV     2   --> E    G_5 D_5   
     e( 22 - 22) =     18.06711  eV     1   --> A_1  G_1 D_1   
     e( 23 - 23) =     18.87668  eV     1   --> B_1  G_3 D_2   
     e( 24 - 24) =     19.02447  eV     1   -->   ?

 **************************************************************************

 **************************************************************************

                    xk=(   0.00000,   0.15000,   0.00000  )

     Band symmetry, C_4v (4mm)  point group:

     e(  1 -  1) =    -23.76928  eV     1   --> A_1  G_1 D_1   
     e(  2 -  2) =    -11.31539  eV     1   --> A_1  G_1 D_1   
     e(  3 -  4) =     -7.83925  eV     2   --> E    G_5 D_5   
     e(  5 -  5) =     -7.83005  eV     1   --> A_1  G_1 D_1   
     e(  6 -  6) =      0.70257  eV     1   --> A_1  G_1 D_1   
     e(  7 -  8) =      0.79116  eV     2   --> E    G_5 D_5   
     e(  9 -  9) =      5.16556  eV     1   --> A_1  G_1 D_1   
     e( 10 - 10) =      7.91000  eV     1   --> B_2  G_4 D_2'  
     e( 11 - 12) =      8.19063  eV     2   --> E    G_5 D_5   
     e( 13 - 13) =      8.94209  eV     1   --> B_1  G_3 D_2   
     e( 14 - 14) =      9.05780  eV     1   --> A_1  G_1 D_1   
     e( 15 - 15) =     11.88838  eV     1   --> B_2  G_4 D_2'  
     e( 16 - 17) =     15.28020  eV     2   --> E    G_5 D_5   
     e( 18 - 18) =     15.51230  eV     1   --> A_1  G_1 D_1   
     e( 19 - 19) =     16.15443  eV     1   --> B_2  G_4 D_2'  
     e( 20 - 21) =     16.95389  eV     2   --> E    G_5 D_5   
     e( 22 - 22) =     17.99336  eV     1   --> A_1  G_1 D_1   
     e( 23 - 23) =     18.86680  eV     1   --> B_1  G_3 D_2   
     e( 24 - 24) =     19.02736  eV     1   -->   ?

 **************************************************************************

 **************************************************************************

                    xk=(   0.00000,   0.16000,   0.00000  )

     Band symmetry, C_4v (4mm)  point group:

     e(  1 -  1) =    -23.76922  eV     1   --> A_1  G_1 D_1   
     e(  2 -  2) =    -11.31560  eV     1   --> A_1  G_1 D_1   
     e(  3 -  4) =     -7.83965  eV     2   --> E    G_5 D_5   
     e(  5 -  5) =     -7.82932  eV     1   --> A_1  G_1 D_1   
     e(  6 -  6) =      0.69011  eV     1   --> A_1  G_1 D_1   
     e(  7 -  8) =      0.78960  eV     2   --> E    G_5 D_5   
     e(  9 -  9) =      5.18741  eV     1   --> A_1  G_1 D_1   
     e( 10 - 10) =      7.89128  eV     1   --> B_2  G_4 D_2'  
     e( 11 - 12) =      8.20866  eV     2   --> E    G_5 D_5   
     e( 13 - 13) =      8.94780  eV     1   --> B_1  G_3 D_2   
     e( 14 - 14) =      9.07898  eV     1   --> A_1  G_1 D_1   
     e( 15 - 15) =     11.92405  eV     1   --> B_2  G_4 D_2'  
     e( 16 - 17) =     15.21891  eV     2   --> E    G_5 D_5   
     e( 18 - 18) =     15.42855  eV     1   --> A_1  G_1 D_1   
     e( 19 - 19) =     16.15853  eV     1   --> B_2  G_4 D_2'  
     e( 20 - 21) =     16.99326  eV     2   --> E    G_5 D_5   
     e( 22 - 22) =     17.91903  eV     1   --> A_1  G_1 D_1   
     e( 23 - 23) =     18.85607  eV     1   --> B_1  G_3 D_2   
     e( 24 - 24) =     19.03081  eV     1   -->   ?

 **************************************************************************

 **************************************************************************

                    xk=(   0.00000,   0.17000,   0.00000  )

     Band symmetry, C_4v (4mm)  point group:

     e(  1 -  1) =    -23.76915  eV     1   --> A_1  G_1 D_1   
     e(  2 -  2) =    -11.31582  eV     1   --> A_1  G_1 D_1   
     e(  3 -  4) =     -7.84007  eV     2   --> E    G_5 D_5   
     e(  5 -  5) =     -7.82858  eV     1   --> A_1  G_1 D_1   
     e(  6 -  6) =      0.67718  eV     1   --> A_1  G_1 D_1   
     e(  7 -  8) =      0.78797  eV     2   --> E    G_5 D_5   
     e(  9 -  9) =      5.21033  eV     1   --> A_1  G_1 D_1   
     e( 10 - 10) =      7.87177  eV     1   --> B_2  G_4 D_2'  
     e( 11 - 12) =      8.22781  eV     2   --> E    G_5 D_5   
     e( 13 - 13) =      8.95386  eV     1   --> B_1  G_3 D_2   
     e( 14 - 14) =      9.10138  eV     1   --> A_1  G_1 D_1   
     e( 15 - 15) =     11.96159  eV     1   --> B_2  G_4 D_2'  
     e( 16 - 17) =     15.15769  eV     2   --> E    G_5 D_5   
     e( 18 - 18) =     15.34276  eV     1   --> A_1  G_1 D_1   
     e( 19 - 19) =     16.16290  eV     1   --> B_2  G_4 D_2'  
     e( 20 - 21) =     17.03073  eV     2   --> E    G_5 D_5   
     e( 22 - 22) =     17.84425  eV     1   --> A_1  G_1 D_1   
     e( 23 - 23) =     18.84447  eV     1   --> B_1  G_3 D_2   
     e( 24 - 24) =     19.03490  eV     1   -->   ?

 **************************************************************************

 **************************************************************************

                    xk=(   0.00000,   0.18000,   0.00000  )

     Band symmetry, C_4v (4mm)  point group:

     e(  1 -  1) =    -23.76908  eV     1   --> A_1  G_1 D_1   
     e(  2 -  2) =    -11.31604  eV     1   --> A_1  G_1 D_1   
     e(  3 -  4) =     -7.84051  eV     2   --> E    G_5 D_5   
     e(  5 -  5) =     -7.82784  eV     1   --> A_1  G_1 D_1   
     e(  6 -  6) =      0.66383  eV     1   --> A_1  G_1 D_1   
     e(  7 -  8) =      0.78625  eV     2   --> E    G_5 D_5   
     e(  9 -  9) =      5.23427  eV     1   --> A_1  G_1 D_1   
     e( 10 - 10) =      7.85152  eV     1   --> B_2  G_4 D_2'  
     e( 11 - 12) =      8.24808  eV     2   --> E    G_5 D_5   
     e( 13 - 13) =      8.96027  eV     1   --> B_1  G_3 D_2   
     e( 14 - 14) =      9.12497  eV     1   --> A_1  G_1 D_1   
     e( 15 - 15) =     12.00095  eV     1   --> B_2  G_4 D_2'  
     e( 16 - 17) =     15.09659  eV     2   --> E    G_5 D_5   
     e( 18 - 18) =     15.25519  eV     1   --> A_1  G_1 D_1   
     e( 19 - 19) =     16.16754  eV     1   --> B_2  G_4 D_2'  
     e( 20 - 21) =     17.06620  eV     2   --> E    G_5 D_5   
     e( 22 - 22) =     17.76918  eV     1   --> A_1  G_1 D_1   
     e( 23 - 23) =     18.83195  eV     1   --> B_1  G_3 D_2   
     e( 24 - 24) =     19.03968  eV     1   -->   ?

 **************************************************************************

 **************************************************************************

                    xk=(   0.00000,   0.19000,   0.00000  )

     Band symmetry, C_4v (4mm)  point group:

     e(  1 -  1) =    -23.76901  eV     1   --> A_1  G_1 D_1   
     e(  2 -  2) =    -11.31626  eV     1   --> A_1  G_1 D_1   
     e(  3 -  4) =     -7.84098  eV     2   --> E    G_5 D_5   
     e(  5 -  5) =     -7.82710  eV     1   --> A_1  G_1 D_1   
     e(  6 -  6) =      0.65010  eV     1   --> A_1  G_1 D_1   
     e(  7 -  8) =      0.78445  eV     2   --> E    G_5 D_5   
     e(  9 -  9) =      5.25919  eV     1   --> A_1  G_1 D_1   
     e( 10 - 10) =      7.83058  eV     1   --> B_2  G_4 D_2'  
     e( 11 - 12) =      8.26946  eV     2   --> E    G_5 D_5   
     e( 13 - 13) =      8.96703  eV     1   --> B_1  G_3 D_2   
     e( 14 - 14) =      9.14971  eV     1   --> A_1  G_1 D_1   
     e( 15 - 15) =     12.04206  eV     1   --> B_2  G_4 D_2'  
     e( 16 - 17) =     15.03564  eV     2   --> E    G_5 D_5   
     e( 18 - 18) =     15.16608  eV     1   --> A_1  G_1 D_1   
     e( 19 - 19) =     16.17244  eV     1   --> B_2  G_4 D_2'  
     e( 20 - 21) =     17.09957  eV     2   --> E    G_5 D_5   
     e( 22 - 22) =     17.69397  eV     1   --> A_1  G_1 D_1   
     e( 23 - 23) =     18.81847  eV     1   --> B_1  G_3 D_2   
     e( 24 - 24) =     19.04523  eV     1   -->   ?

 **************************************************************************

 **************************************************************************

                    xk=(   0.00000,   0.20000,   0.00000  )

     Band symmetry, C_4v (4mm)  point group:

     e(  1 -  1) =    -23.76893  eV     1   --> A_1  G_1 D_1   
     e(  2 -  2) =    -11.31647  eV     1   --> A_1  G_1 D_1   
     e(  3 -  4) =     -7.84147  eV     2   --> E    G_5 D_5   
     e(  5 -  5) =     -7.82636  eV     1   --> A_1  G_1 D_1   
     e(  6 -  6) =      0.63606  eV     1   --> A_1  G_1 D_1   
     e(  7 -  8) =      0.78259  eV     2   --> E    G_5 D_5   
     e(  9 -  9) =      5.28503  eV     1   --> A_1  G_1 D_1   
     e( 10 - 10) =      7.80901  eV     1   --> B_2  G_4 D_2'  
     e( 11 - 12) =      8.29193  eV     2   --> E    G_5 D_5   
     e( 13 - 13) =      8.97413  eV     1   --> B_1  G_3 D_2   
     e( 14 - 14) =      9.17557  eV     1   --> A_1  G_1 D_1   
     e( 15 - 15) =     12.08486  eV     1   --> B_2  G_4 D_2'  
     e( 16 - 17) =     14.97488  eV     2   --> E    G_5 D_5   
     e( 18 - 18) =     15.07565  eV     1   --> A_1  G_1 D_1   
     e( 19 - 19) =     16.17761  eV     1   --> B_2  G_4 D_2'  
     e( 20 - 21) =     17.13075  eV     2   --> E    G_5 D_5   
     e( 22 - 22) =     17.61875  eV     1   --> A_1  G_1 D_1   
     e( 23 - 23) =     18.80398  eV     1   --> B_1  G_3 D_2   
     e( 24 - 24) =     19.05162  eV     1   -->   ?

 **************************************************************************

 **************************************************************************

                    xk=(   0.00000,   0.21000,   0.00000  )

     Band symmetry, C_4v (4mm)  point group:

     e(  1 -  1) =    -23.76885  eV     1   --> A_1  G_1 D_1   
     e(  2 -  2) =    -11.31668  eV     1   --> A_1  G_1 D_1   
     e(  3 -  4) =     -7.84197  eV     2   --> E    G_5 D_5   
     e(  5 -  5) =     -7.82564  eV     1   --> A_1  G_1 D_1   
     e(  6 -  6) =      0.62175  eV     1   --> A_1  G_1 D_1   
     e(  7 -  8) =      0.78065  eV     2   --> E    G_5 D_5   
     e(  9 -  9) =      5.31174  eV     1   --> A_1  G_1 D_1   
     e( 10 - 10) =      7.78687  eV     1   --> B_2  G_4 D_2'  
     e( 11 - 12) =      8.31550  eV     2   --> E    G_5 D_5   
     e( 13 - 13) =      8.98158  eV     1   --> B_1  G_3 D_2   
     e( 14 - 14) =      9.20251  eV     1   --> A_1  G_1 D_1   
     e( 15 - 15) =     12.12931  eV     1   --> B_2  G_4 D_2'  
     e( 16 - 17) =     14.91432  eV     2   --> E    G_5 D_5   
     e( 18 - 18) =     14.98407  eV     1   --> A_1  G_1 D_1   
     e( 19 - 19) =     16.18306  eV     1   --> B_2  G_4 D_2'  
     e( 20 - 21) =     17.15965  eV     2   --> E    G_5 D_5   
     e( 22 - 22) =     17.54366  eV     1   --> A_1  G_1 D_1   
     e( 23 - 23) =     18.78844  eV     1   --> B_1  G_3 D_2   
     e( 24 - 24) =     19.05889  eV     1   -->   ?

 **************************************************************************

 **************************************************************************

                    xk=(   0.00000,   0.22000,   0.00000  )

     Band symmetry, C_4v (4mm)  point group:

     e(  1 -  1) =    -23.76877  eV     1   --> A_1  G_1 D_1   
     e(  2 -  2) =    -11.31689  eV     1   --> A_1  G_1 D_1   
     e(  3 -  4) =     -7.84250  eV     2   --> E    G_5 D_5   
     e(  5 -  5) =     -7.82493  eV     1   --> A_1  G_1 D_1   
     e(  6 -  6) =      0.60722  eV     1   --> A_1  G_1 D_1   
     e(  7 -  8) =      0.77865  eV     2   --> E    G_5 D_5   
     e(  9 -  9) =      5.33927  eV     1   --> A_1  G_1 D_1   
     e( 10 - 10) =      7.76421  eV     1   --> B_2  G_4 D_2'  
     e( 11 - 12) =      8.34014  eV     2   --> E    G_5 D_5   
     e( 13 - 13) =      8.98936  eV     1   --> B_1  G_3 D_2   
     e( 14 - 14) =      9.23048  eV     1   --> A_1  G_1 D_1   
     e( 15 - 15) =     12.17532  eV     1   --> B_2  G_4 D_2'  
     e( 16 - 17) =     14.85401  eV     2   --> E    G_5 D_5   
     e( 18 - 18) =     14.89153  eV     1   --> A_1  G_1 D_1   
     e( 19 - 19) =     16.18877  eV     1   --> B_2  G_4 D_2'  
     e( 20 - 21) =     17.18619  eV     2   --> E    G_5 D_5   
     e( 22 - 22) =     17.46884  eV     1   --> A_1  G_1 D_1   
     e( 23 - 23) =     18.77179  eV     1   --> B_1  G_3 D_2   
     e( 24 - 24) =     19.06711  eV     1   -->   ?

 **************************************************************************

 **************************************************************************

                    xk=(   0.00000,   0.23000,   0.00000  )

     Band symmetry, C_4v (4mm)  point group:

     e(  1 -  1) =    -23.76869  eV     1   --> A_1  G_1 D_1   
     e(  2 -  2) =    -11.31708  eV     1   --> A_1  G_1 D_1   
     e(  3 -  4) =     -7.84306  eV     2   --> E    G_5 D_5   
     e(  5 -  5) =     -7.82426  eV     1   --> A_1  G_1 D_1   
     e(  6 -  6) =      0.59252  eV     1   --> A_1  G_1 D_1   
     e(  7 -  8) =      0.77658  eV     2   --> E    G_5 D_5   
     e(  9 -  9) =      5.36759  eV     1   --> A_1  G_1 D_1   
     e( 10 - 10) =      7.74108  eV     1   --> B_2  G_4 D_2'  
     e( 11 - 12) =      8.36586  eV     2   --> E    G_5 D_5   
     e( 13 - 13) =      8.99748  eV     1   --> B_1  G_3 D_2   
     e( 14 - 14) =      9.25943  eV     1   --> A_1  G_1 D_1   
     e( 15 - 15) =     12.22287  eV     1   --> B_2  G_4 D_2'  
     e( 16 - 17) =     14.79396  eV     2   --> E    G_5 D_5   
     e( 18 - 18) =     14.79819  eV     1   --> A_1  G_1 D_1   
     e( 19 - 19) =     16.19475  eV     1   --> B_2  G_4 D_2'  
     e( 20 - 21) =     17.21029  eV     2   --> E    G_5 D_5   
     e( 22 - 22) =     17.39440  eV     1   --> A_1  G_1 D_1   
     e( 23 - 23) =     18.75397  eV     1   --> B_1  G_3 D_2   
     e( 24 - 24) =     19.07634  eV     1   -->   ?

 **************************************************************************

 **************************************************************************

                    xk=(   0.00000,   0.24000,   0.00000  )

     Band symmetry, C_4v (4mm)  point group:

     e(  1 -  1) =    -23.76860  eV     1   --> A_1  G_1 D_1   
     e(  2 -  2) =    -11.31726  eV     1   --> A_1  G_1 D_1   
     e(  3 -  4) =     -7.84363  eV     2   --> E    G_5 D_5   
     e(  5 -  5) =     -7.82361  eV     1   --> A_1  G_1 D_1   
     e(  6 -  6) =      0.57770  eV     1   --> A_1  G_1 D_1   
     e(  7 -  8) =      0.77446  eV     2   --> E    G_5 D_5   
     e(  9 -  9) =      5.39663  eV     1   --> A_1  G_1 D_1   
     e( 10 - 10) =      7.71753  eV     1   --> B_2  G_4 D_2'  
     e( 11 - 12) =      8.39263  eV     2   --> E    G_5 D_5   
     e( 13 - 13) =      9.00592  eV     1   --> B_1  G_3 D_2   
     e( 14 - 14) =      9.28932  eV     1   --> A_1  G_1 D_1   
     e( 15 - 15) =     12.27187  eV     1   --> B_2  G_4 D_2'  
     e( 16 - 16) =     14.70419  eV     1   --> A_1  G_1 D_1   
     e( 17 - 18) =     14.73421  eV     2   --> E    G_5 D_5   
     e( 19 - 19) =     16.20100  eV     1   --> B_2  G_4 D_2'  
     e( 20 - 21) =     17.23189  eV     2   --> E    G_5 D_5   
     e( 22 - 22) =     17.32049  eV     1   --> A_1  G_1 D_1   
     e( 23 - 23) =     18.73494  eV     1   --> B_1  G_3 D_2   
     e( 24 - 24) =     19.08661  eV     1   -->   ?

 **************************************************************************

 **************************************************************************

                    xk=(   0.00000,   0.25000,   0.00000  )

     Band symmetry, C_4v (4mm)  point group:

     e(  1 -  1) =    -23.76850  eV     1   --> A_1  G_1 D_1   
     e(  2 -  2) =    -11.31743  eV     1   --> A_1  G_1 D_1   
     e(  3 -  4) =     -7.84422  eV     2   --> E    G_5 D_5   
     e(  5 -  5) =     -7.82301  eV     1   --> A_1  G_1 D_1   
     e(  6 -  6) =      0.56281  eV     1   --> A_1  G_1 D_1   
     e(  7 -  8) =      0.77228  eV     2   --> E    G_5 D_5   
     e(  9 -  9) =      5.42635  eV     1   --> A_1  G_1 D_1   
     e( 10 - 10) =      7.69361  eV     1   --> B_2  G_4 D_2'  
     e( 11 - 12) =      8.42046  eV     2   --> E    G_5 D_5   
     e( 13 - 13) =      9.01469  eV     1   --> B_1  G_3 D_2   
     e( 14 - 14) =      9.32009  eV     1   --> A_1  G_1 D_1   
     e( 15 - 15) =     12.32229  eV     1   --> B_2  G_4 D_2'  
     e( 16 - 16) =     14.60965  eV     1   --> A_1  G_1 D_1   
     e( 17 - 18) =     14.67479  eV     2   --> E    G_5 D_5   
     e( 19 - 19) =     16.20753  eV     1   --> B_2  G_4 D_2'  
     e( 20 - 20) =     17.24721  eV     1   --> A_1  G_1 D_1   
     e( 21 - 22) =     17.25092  eV     2   --> E    G_5 D_5   
     e( 23 - 23) =     18.71463  eV     1   --> B_1  G_3 D_2   
     e( 24 - 24) =     19.09796  eV     1   -->   ?

 **************************************************************************

 **************************************************************************

                    xk=(   0.00000,   0.26000,   0.00000  )

     Band symmetry, C_4v (4mm)  point group:

     e(  1 -  1) =    -23.76841  eV     1   --> A_1  G_1 D_1   
     e(  2 -  2) =    -11.31759  eV     1   --> A_1  G_1 D_1   
     e(  3 -  4) =     -7.84483  eV     2   --> E    G_5 D_5   
     e(  5 -  5) =     -7.82246  eV     1   --> A_1  G_1 D_1   
     e(  6 -  6) =      0.54790  eV     1   --> A_1  G_1 D_1   
     e(  7 -  8) =      0.77006  eV     2   --> E    G_5 D_5   
     e(  9 -  9) =      5.45671  eV     1   --> A_1  G_1 D_1   
     e( 10 - 10) =      7.66936  eV     1   --> B_2  G_4 D_2'  
     e( 11 - 12) =      8.44933  eV     2   --> E    G_5 D_5   
     e( 13 - 13) =      9.02379  eV     1   --> B_1  G_3 D_2   
     e( 14 - 14) =      9.35168  eV     1   --> A_1  G_1 D_1   
     e( 15 - 15) =     12.37407  eV     1   --> B_2  G_4 D_2'  
     e( 16 - 16) =     14.51470  eV     1   --> A_1  G_1 D_1   
     e( 17 - 18) =     14.61571  eV     2   --> E    G_5 D_5   
     e( 19 - 19) =     16.21433  eV     1   --> B_2  G_4 D_2'  
     e( 20 - 20) =     17.17470  eV     1   --> A_1  G_1 D_1   
     e( 21 - 22) =     17.26735  eV     2   --> E    G_5 D_5   
     e( 23 - 23) =     18.69298  eV     1   --> B_1  G_3 D_2   
     e( 24 - 24) =     19.11042  eV     1   -->   ?

 **************************************************************************

 **************************************************************************

                    xk=(   0.00000,   0.27000,   0.00000  )

     Band symmetry, C_4v (4mm)  point group:

     e(  1 -  1) =    -23.76831  eV     1   --> A_1  G_1 D_1   
     e(  2 -  2) =    -11.31772  eV     1   --> A_1  G_1 D_1   
     e(  3 -  4) =     -7.84545  eV     2   --> E    G_5 D_5   
     e(  5 -  5) =     -7.82195  eV     1   --> A_1  G_1 D_1   
     e(  6 -  6) =      0.53300  eV     1   --> A_1  G_1 D_1   
     e(  7 -  8) =      0.76778  eV     2   --> E    G_5 D_5   
     e(  9 -  9) =      5.48767  eV     1   --> A_1  G_1 D_1   
     e( 10 - 10) =      7.64483  eV     1   --> B_2  G_4 D_2'  
     e( 11 - 12) =      8.47923  eV     2   --> E    G_5 D_5   
     e( 13 - 13) =      9.03319  eV     1   --> B_1  G_3 D_2   
     e( 14 - 14) =      9.38402  eV     1   --> A_1  G_1 D_1   
     e( 15 - 15) =     12.42716  eV     1   --> B_2  G_4 D_2'  
     e( 16 - 16) =     14.41945  eV     1   --> A_1  G_1 D_1   
     e( 17 - 18) =     14.55701  eV     2   --> E    G_5 D_5   
     e( 19 - 19) =     16.22141  eV     1   --> B_2  G_4 D_2'  
     e( 20 - 20) =     17.10307  eV     1   --> A_1  G_1 D_1   
     e( 21 - 22) =     17.28113  eV     2   --> E    G_5 D_5   
     e( 23 - 23) =     18.66993  eV     1   --> B_1  G_3 D_2   
     e( 24 - 24) =     19.12400  eV     1   -->   ?

 **************************************************************************

 **************************************************************************

                    xk=(   0.00000,   0.28000,   0.00000  )

     Band symmetry, C_4v (4mm)  point group:

     e(  1 -  1) =    -23.76821  eV     1   --> A_1  G_1 D_1   
     e(  2 -  2) =    -11.31784  eV     1   --> A_1  G_1 D_1   
     e(  3 -  4) =     -7.84610  eV     2   --> E    G_5 D_5   
     e(  5 -  5) =     -7.82151  eV     1   --> A_1  G_1 D_1   
     e(  6 -  6) =      0.51816  eV     1   --> A_1  G_1 D_1   
     e(  7 -  8) =      0.76546  eV     2   --> E    G_5 D_5   
     e(  9 -  9) =      5.51919  eV     1   --> A_1  G_1 D_1   
     e( 10 - 10) =      7.62006  eV     1   --> B_2  G_4 D_2'  
     e( 11 - 12) =      8.51014  eV     2   --> E    G_5 D_5   
     e( 13 - 13) =      9.04291  eV     1   --> B_1  G_3 D_2   
     e( 14 - 14) =      9.41706  eV     1   --> A_1  G_1 D_1   
     e( 15 - 15) =     12.48151  eV     1   --> B_2  G_4 D_2'  
     e( 16 - 16) =     14.32399  eV     1   --> A_1  G_1 D_1   
     e( 17 - 18) =     14.49871  eV     2   --> E    G_5 D_5   
     e( 19 - 19) =     16.22878  eV     1   --> B_2  G_4 D_2'  
     e( 20 - 20) =     17.03244  eV     1   --> A_1  G_1 D_1   
     e( 21 - 22) =     17.29226  eV     2   --> E    G_5 D_5   
     e( 23 - 23) =     18.64543  eV     1   --> B_1  G_3 D_2   
     e( 24 - 24) =     19.13871  eV     1   -->   ?

 **************************************************************************

 **************************************************************************

                    xk=(   0.00000,   0.29000,   0.00000  )

     Band symmetry, C_4v (4mm)  point group:

     e(  1 -  1) =    -23.76811  eV     1   --> A_1  G_1 D_1   
     e(  2 -  2) =    -11.31794  eV     1   --> A_1  G_1 D_1   
     e(  3 -  4) =     -7.84676  eV     2   --> E    G_5 D_5   
     e(  5 -  5) =     -7.82114  eV     1   --> A_1  G_1 D_1   
     e(  6 -  6) =      0.50343  eV     1   --> A_1  G_1 D_1   
     e(  7 -  8) =      0.76310  eV     2   --> E    G_5 D_5   
     e(  9 -  9) =      5.55122  eV     1   --> A_1  G_1 D_1   
     e( 10 - 10) =      7.59509  eV     1   --> B_2  G_4 D_2'  
     e( 11 - 12) =      8.54206  eV     2   --> E    G_5 D_5   
     e( 13 - 13) =      9.05294  eV     1   --> B_1  G_3 D_2   
     e( 14 - 14) =      9.45072  eV     1   --> A_1  G_1 D_1   
     e( 15 - 15) =     12.53707  eV     1   --> B_2  G_4 D_2'  
     e( 16 - 16) =     14.22843  eV     1   --> A_1  G_1 D_1   
     e( 17 - 18) =     14.44083  eV     2   --> E    G_5 D_5   
     e( 19 - 19) =     16.23642  eV     1   --> B_2  G_4 D_2'  
     e( 20 - 20) =     16.96292  eV     1   --> A_1  G_1 D_1   
     e( 21 - 22) =     17.30071  eV     2   --> E    G_5 D_5   
     e( 23 - 23) =     18.61940  eV     1   --> B_1  G_3 D_2   
     e( 24 - 24) =     19.15454  eV     1   -->   ?

 **************************************************************************

 **************************************************************************

                    xk=(   0.00000,   0.30000,   0.00000  )

     Band symmetry, C_4v (4mm)  point group:

     e(  1 -  1) =    -23.76800  eV     1   --> A_1  G_1 D_1   
     e(  2 -  2) =    -11.31801  eV     1   --> A_1  G_1 D_1   
     e(  3 -  4) =     -7.84744  eV     2   --> E    G_5 D_5   
     e(  5 -  5) =     -7.82084  eV     1   --> A_1  G_1 D_1   
     e(  6 -  6) =      0.48885  eV     1   --> A_1  G_1 D_1   
     e(  7 -  8) =      0.76070  eV     2   --> E    G_5 D_5   
     e(  9 -  9) =      5.58374  eV     1   --> A_1  G_1 D_1   
     e( 10 - 10) =      7.56996  eV     1   --> B_2  G_4 D_2'  
     e( 11 - 12) =      8.57498  eV     2   --> E    G_5 D_5   
     e( 13 - 13) =      9.06327  eV     1   --> B_1  G_3 D_2   
     e( 14 - 14) =      9.48492  eV     1   --> A_1  G_1 D_1   
     e( 15 - 15) =     12.59379  eV     1   --> B_2  G_4 D_2'  
     e( 16 - 16) =     14.13285  eV     1   --> A_1  G_1 D_1   
     e( 17 - 18) =     14.38339  eV     2   --> E    G_5 D_5   
     e( 19 - 19) =     16.24436  eV     1   --> B_2  G_4 D_2'  
     e( 20 - 20) =     16.89463  eV     1   --> A_1  G_1 D_1   
     e( 21 - 22) =     17.30648  eV     2   --> E    G_5 D_5   
     e( 23 - 23) =     18.59181  eV     1   --> B_1  G_3 D_2   
     e( 24 - 24) =     19.17147  eV     1   -->   ?

 **************************************************************************

 **************************************************************************

                    xk=(   0.00000,   0.31000,   0.00000  )

     Band symmetry, C_4v (4mm)  point group:

     e(  1 -  1) =    -23.76790  eV     1   --> A_1  G_1 D_1   
     e(  2 -  2) =    -11.31806  eV     1   --> A_1  G_1 D_1   
     e(  3 -  4) =     -7.84814  eV     2   --> E    G_5 D_5   
     e(  5 -  5) =     -7.82062  eV     1   --> A_1  G_1 D_1   
     e(  6 -  6) =      0.47445  eV     1   --> A_1  G_1 D_1   
     e(  7 -  8) =      0.75828  eV     2   --> E    G_5 D_5   
     e(  9 -  9) =      5.61669  eV     1   --> A_1  G_1 D_1   
     e( 10 - 10) =      7.54470  eV     1   --> B_2  G_4 D_2'  
     e( 11 - 12) =      8.60887  eV     2   --> E    G_5 D_5   
     e( 13 - 13) =      9.07389  eV     1   --> B_1  G_3 D_2   
     e( 14 - 14) =      9.51958  eV     1   --> A_1  G_1 D_1   
     e( 15 - 15) =     12.65164  eV     1   --> B_2  G_4 D_2'  
     e( 16 - 16) =     14.03732  eV     1   --> A_1  G_1 D_1   
     e( 17 - 18) =     14.32642  eV     2   --> E    G_5 D_5   
     e( 19 - 19) =     16.25259  eV     1   --> B_2  G_4 D_2'  
     e( 20 - 20) =     16.82768  eV     1   --> A_1  G_1 D_1   
     e( 21 - 22) =     17.30961  eV     2   --> E    G_5 D_5   
     e( 23 - 23) =     18.56260  eV     1   --> B_1  G_3 D_2   
     e( 24 - 24) =     19.18948  eV     1   -->   ?

 **************************************************************************

 **************************************************************************

                    xk=(   0.00000,   0.32000,   0.00000  )

     Band symmetry, C_4v (4mm)  point group:

     e(  1 -  1) =    -23.76779  eV     1   --> A_1  G_1 D_1   
     e(  2 -  2) =    -11.31808  eV     1   --> A_1  G_1 D_1   
     e(  3 -  4) =     -7.84885  eV     2   --> E    G_5 D_5   
     e(  5 -  5) =     -7.82049  eV     1   --> A_1  G_1 D_1   
     e(  6 -  6) =      0.46027  eV     1   --> A_1  G_1 D_1   
     e(  7 -  8) =      0.75582  eV     2   --> E    G_5 D_5   
     e(  9 -  9) =      5.65006  eV     1   --> A_1  G_1 D_1   
     e( 10 - 10) =      7.51935  eV     1   --> B_2  G_4 D_2'  
     e( 11 - 12) =      8.64373  eV     2   --> E    G_5 D_5   
     e( 13 - 13) =      9.08480  eV     1   --> B_1  G_3 D_2   
     e( 14 - 14) =      9.55461  eV     1   --> A_1  G_1 D_1   
     e( 15 - 15) =     12.71055  eV     1   --> B_2  G_4 D_2'  
     e( 16 - 16) =     13.94194  eV     1   --> A_1  G_1 D_1   
     e( 17 - 18) =     14.26995  eV     2   --> E    G_5 D_5   
     e( 19 - 19) =     16.26111  eV     1   --> B_2  G_4 D_2'  
     e( 20 - 20) =     16.76220  eV     1   --> A_1  G_1 D_1   
     e( 21 - 22) =     17.31010  eV     2   --> E    G_5 D_5   
     e( 23 - 23) =     18.53173  eV     1   --> B_1  G_3 D_2   
     e( 24 - 24) =     19.20852  eV     1   -->   ?

 **************************************************************************

 **************************************************************************

                    xk=(   0.00000,   0.33000,   0.00000  )

     Band symmetry, C_4v (4mm)  point group:

     e(  1 -  1) =    -23.76767  eV     1   --> A_1  G_1 D_1   
     e(  2 -  2) =    -11.31808  eV     1   --> A_1  G_1 D_1   
     e(  3 -  4) =     -7.84957  eV     2   --> E    G_5 D_5   
     e(  5 -  5) =     -7.82045  eV     1   --> A_1  G_1 D_1   
     e(  6 -  6) =      0.44635  eV     1   --> A_1  G_1 D_1   
     e(  7 -  8) =      0.75334  eV     2   --> E    G_5 D_5   
     e(  9 -  9) =      5.68381  eV     1   --> A_1  G_1 D_1   
     e( 10 - 10) =      7.49395  eV     1   --> B_2  G_4 D_2'  
     e( 11 - 12) =      8.67955  eV     2   --> E    G_5 D_5   
     e( 13 - 13) =      9.09600  eV     1   --> B_1  G_3 D_2   
     e( 14 - 14) =      9.58992  eV     1   --> A_1  G_1 D_1   
     e( 15 - 15) =     12.77050  eV     1   --> B_2  G_4 D_2'  
     e( 16 - 16) =     13.84676  eV     1   --> A_1  G_1 D_1   
     e( 17 - 18) =     14.21398  eV     2   --> E    G_5 D_5   
     e( 19 - 19) =     16.26994  eV     1   --> B_2  G_4 D_2'  
     e( 20 - 20) =     16.69829  eV     1   --> A_1  G_1 D_1   
     e( 21 - 22) =     17.30800  eV     2   --> E    G_5 D_5   
     e( 23 - 23) =     18.49918  eV     1   --> B_1  G_3 D_2   
     e( 24 - 24) =     19.22855  eV     1   -->   ?

 **************************************************************************

 **************************************************************************

                    xk=(   0.00000,   0.34000,   0.00000  )

     Band symmetry, C_4v (4mm)  point group:

     e(  1 -  1) =    -23.76756  eV     1   --> A_1  G_1 D_1   
     e(  2 -  2) =    -11.31804  eV     1   --> A_1  G_1 D_1   
     e(  3 -  4) =     -7.85031  eV     2   --> E    G_5 D_5   
     e(  5 -  5) =     -7.82050  eV     1   --> A_1  G_1 D_1   
     e(  6 -  6) =      0.43271  eV     1   --> A_1  G_1 D_1   
     e(  7 -  8) =      0.75084  eV     2   --> E    G_5 D_5   
     e(  9 -  9) =      5.71790  eV     1   --> A_1  G_1 D_1   
     e( 10 - 10) =      7.46852  eV     1   --> B_2  G_4 D_2'  
     e( 11 - 12) =      8.71631  eV     2   --> E    G_5 D_5   
     e( 13 - 13) =      9.10747  eV     1   --> B_1  G_3 D_2   
     e( 14 - 14) =      9.62543  eV     1   --> A_1  G_1 D_1   
     e( 15 - 15) =     12.83144  eV     1   --> B_2  G_4 D_2'  
     e( 16 - 16) =     13.75187  eV     1   --> A_1  G_1 D_1   
     e( 17 - 18) =     14.15855  eV     2   --> E    G_5 D_5   
     e( 19 - 19) =     16.27907  eV     1   --> B_2  G_4 D_2'  
     e( 20 - 20) =     16.63607  eV     1   --> A_1  G_1 D_1   
     e( 21 - 22) =     17.30334  eV     2   --> E    G_5 D_5   
     e( 23 - 23) =     18.46493  eV     1   --> B_1  G_3 D_2   
     e( 24 - 24) =     19.24951  eV     1   -->   ?

 **************************************************************************

 **************************************************************************

                    xk=(   0.00000,   0.35000,   0.00000  )

     Band symmetry, C_4v (4mm)  point group:

     e(  1 -  1) =    -23.76744  eV     1   --> A_1  G_1 D_1   
     e(  2 -  2) =    -11.31797  eV     1   --> A_1  G_1 D_1   
     e(  3 -  4) =     -7.85107  eV     2   --> E    G_5 D_5   
     e(  5 -  5) =     -7.82066  eV     1   --> A_1  G_1 D_1   
     e(  6 -  6) =      0.41940  eV     1   --> A_1  G_1 D_1   
     e(  7 -  8) =      0.74832  eV     2   --> E    G_5 D_5   
     e(  9 -  9) =      5.75232  eV     1   --> A_1  G_1 D_1   
     e( 10 - 10) =      7.44309  eV     1   --> B_2  G_4 D_2'  
     e( 11 - 12) =      8.75399  eV     2   --> E    G_5 D_5   
     e( 13 - 13) =      9.11921  eV     1   --> B_1  G_3 D_2   
     e( 14 - 14) =      9.66101  eV     1   --> A_1  G_1 D_1   
     e( 15 - 15) =     12.89331  eV     1   --> B_2  G_4 D_2'  
     e( 16 - 16) =     13.65731  eV     1   --> A_1  G_1 D_1   
     e( 17 - 18) =     14.10367  eV     2   --> E    G_5 D_5   
     e( 19 - 19) =     16.28852  eV     1   --> B_2  G_4 D_2'  
     e( 20 - 20) =     16.57567  eV     1   --> A_1  G_1 D_1   
     e( 21 - 22) =     17.29617  eV     2   --> E    G_5 D_5   
     e( 23 - 23) =     18.42897  eV     1   --> B_1  G_3 D_2   
     e( 24 - 24) =     19.27135  eV     1   -->   ?

 **************************************************************************

 **************************************************************************

                    xk=(   0.00000,   0.36000,   0.00000  )

     Band symmetry, C_4v (4mm)  point group:

     e(  1 -  1) =    -23.76732  eV     1   --> A_1  G_1 D_1   
     e(  2 -  2) =    -11.31787  eV     1   --> A_1  G_1 D_1   
     e(  3 -  4) =     -7.85183  eV     2   --> E    G_5 D_5   
     e(  5 -  5) =     -7.82093  eV     1   --> A_1  G_1 D_1   
     e(  6 -  6) =      0.40643  eV     1   --> A_1  G_1 D_1   
     e(  7 -  8) =      0.74579  eV     2   --> E    G_5 D_5   
     e(  9 -  9) =      5.78703  eV     1   --> A_1  G_1 D_1   
     e( 10 - 10) =      7.41769  eV     1   --> B_2  G_4 D_2'  
     e( 11 - 12) =      8.79258  eV     2   --> E    G_5 D_5   
     e( 13 - 13) =      9.13122  eV     1   --> B_1  G_3 D_2   
     e( 14 - 14) =      9.69658  eV     1   --> A_1  G_1 D_1   
     e( 15 - 15) =     12.95610  eV     1   --> B_2  G_4 D_2'  
     e( 16 - 16) =     13.56317  eV     1   --> A_1  G_1 D_1   
     e( 17 - 18) =     14.04936  eV     2   --> E    G_5 D_5   
     e( 19 - 19) =     16.29829  eV     1   --> B_2  G_4 D_2'  
     e( 20 - 20) =     16.51719  eV     1   --> A_1  G_1 D_1   
     e( 21 - 22) =     17.28656  eV     2   --> E    G_5 D_5   
     e( 23 - 23) =     18.39131  eV     1   --> B_1  G_3 D_2   
     e( 24 - 24) =     19.29399  eV     1   -->   ?

 **************************************************************************

 **************************************************************************

                    xk=(   0.00000,   0.37000,   0.00000  )

     Band symmetry, C_4v (4mm)  point group:

     e(  1 -  1) =    -23.76721  eV     1   --> A_1  G_1 D_1   
     e(  2 -  2) =    -11.31773  eV     1   --> A_1  G_1 D_1   
     e(  3 -  4) =     -7.85261  eV     2   --> E    G_5 D_5   
     e(  5 -  5) =     -7.82131  eV     1   --> A_1  G_1 D_1   
     e(  6 -  6) =      0.39384  eV     1   --> A_1  G_1 D_1   
     e(  7 -  8) =      0.74324  eV     2   --> E    G_5 D_5   
     e(  9 -  9) =      5.82201  eV     1   --> A_1  G_1 D_1   
     e( 10 - 10) =      7.39235  eV     1   --> B_2  G_4 D_2'  
     e( 11 - 12) =      8.83207  eV     2   --> E    G_5 D_5   
     e( 13 - 13) =      9.14348  eV     1   --> B_1  G_3 D_2   
     e( 14 - 14) =      9.73201  eV     1   --> A_1  G_1 D_1   
     e( 15 - 15) =     13.01974  eV     1   --> B_2  G_4 D_2'  
     e( 16 - 16) =     13.46949  eV     1   --> A_1  G_1 D_1   
     e( 17 - 18) =     13.99565  eV     2   --> E    G_5 D_5   
     e( 19 - 19) =     16.30839  eV     1   --> B_2  G_4 D_2'  
     e( 20 - 20) =     16.46076  eV     1   --> A_1  G_1 D_1   
     e( 21 - 22) =     17.27456  eV     2   --> E    G_5 D_5   
     e( 23 - 23) =     18.35199  eV     1   --> B_1  G_3 D_2   
     e( 24 - 24) =     19.31738  eV     1   -->   ?

 **************************************************************************

 **************************************************************************

                    xk=(   0.00000,   0.38000,   0.00000  )

     Band symmetry, C_4v (4mm)  point group:

     e(  1 -  1) =    -23.76708  eV     1   --> A_1  G_1 D_1   
     e(  2 -  2) =    -11.31756  eV     1   --> A_1  G_1 D_1   
     e(  3 -  4) =     -7.85339  eV     2   --> E    G_5 D_5   
     e(  5 -  5) =     -7.82181  eV     1   --> A_1  G_1 D_1   
     e(  6 -  6) =      0.38165  eV     1   --> A_1  G_1 D_1   
     e(  7 -  8) =      0.74069  eV     2   --> E    G_5 D_5   
     e(  9 -  9) =      5.85724  eV     1   --> A_1  G_1 D_1   
     e( 10 - 10) =      7.36709  eV     1   --> B_2  G_4 D_2'  
     e( 11 - 12) =      8.87244  eV     2   --> E    G_5 D_5   
     e( 13 - 13) =      9.15599  eV     1   --> B_1  G_3 D_2   
     e( 14 - 14) =      9.76720  eV     1   --> A_1  G_1 D_1   
     e( 15 - 15) =     13.08420  eV     1   --> B_2  G_4 D_2'  
     e( 16 - 16) =     13.37633  eV     1   --> A_1  G_1 D_1   
     e( 17 - 18) =     13.94255  eV     2   --> E    G_5 D_5   
     e( 19 - 19) =     16.31883  eV     1   --> B_2  G_4 D_2'  
     e( 20 - 20) =     16.40651  eV     1   --> A_1  G_1 D_1   
     e( 21 - 22) =     17.26022  eV     2   --> E    G_5 D_5   
     e( 23 - 23) =     18.31103  eV     1   --> B_1  G_3 D_2   
     e( 24 - 24) =     19.34142  eV     1   -->   ?

 **************************************************************************

 **************************************************************************

                    xk=(   0.00000,   0.39000,   0.00000  )

     Band symmetry, C_4v (4mm)  point group:

     e(  1 -  1) =    -23.76696  eV     1   --> A_1  G_1 D_1   
     e(  2 -  2) =    -11.31735  eV     1   --> A_1  G_1 D_1   
     e(  3 -  4) =     -7.85419  eV     2   --> E    G_5 D_5   
     e(  5 -  5) =     -7.82243  eV     1   --> A_1  G_1 D_1   
     e(  6 -  6) =      0.36989  eV     1   --> A_1  G_1 D_1   
     e(  7 -  8) =      0.73814  eV     2   --> E    G_5 D_5   
     e(  9 -  9) =      5.89270  eV     1   --> A_1  G_1 D_1   
     e( 10 - 10) =      7.34194  eV     1   --> B_2  G_4 D_2'  
     e( 11 - 12) =      8.91367  eV     2   --> E    G_5 D_5   
     e( 13 - 13) =      9.16874  eV     1   --> B_1  G_3 D_2   
     e( 14 - 14) =      9.80201  eV     1   --> A_1  G_1 D_1   
     e( 15 - 15) =     13.14944  eV     1   --> B_2  G_4 D_2'  
     e( 16 - 16) =     13.28376  eV     1   --> A_1  G_1 D_1   
     e( 17 - 18) =     13.89009  eV     2   --> E    G_5 D_5   
     e( 19 - 19) =     16.32962  eV     1   --> B_2  G_4 D_2'  
     e( 20 - 20) =     16.35455  eV     1   --> A_1  G_1 D_1   
     e( 21 - 22) =     17.24362  eV     2   --> E    G_5 D_5   
     e( 23 - 23) =     18.26849  eV     1   --> B_1  G_3 D_2   
     e( 24 - 24) =     19.36607  eV     1   -->   ?

 **************************************************************************

 **************************************************************************

                    xk=(   0.00000,   0.40000,   0.00000  )

     Band symmetry, C_4v (4mm)  point group:

     e(  1 -  1) =    -23.76684  eV     1   --> A_1  G_1 D_1   
     e(  2 -  2) =    -11.31710  eV     1   --> A_1  G_1 D_1   
     e(  3 -  4) =     -7.85500  eV     2   --> E    G_5 D_5   
     e(  5 -  5) =     -7.82318  eV     1   --> A_1  G_1 D_1   
     e(  6 -  6) =      0.35857  eV     1   --> A_1  G_1 D_1   
     e(  7 -  8) =      0.73559  eV     2   --> E    G_5 D_5   
     e(  9 -  9) =      5.92835  eV     1   --> A_1  G_1 D_1   
     e( 10 - 10) =      7.31692  eV     1   --> B_2  G_4 D_2'  
     e( 11 - 12) =      8.95574  eV     2   --> E    G_5 D_5   
     e( 13 - 13) =      9.18172  eV     1   --> B_1  G_3 D_2   
     e( 14 - 14) =      9.83633  eV     1   --> A_1  G_1 D_1   
     e( 15 - 15) =     13.19183  eV     1   --> A_1  G_1 D_1   
     e( 16 - 16) =     13.21541  eV     1   --> B_2  G_4 D_2'  
     e( 17 - 18) =     13.83828  eV     2   --> E    G_5 D_5   
     e( 19 - 19) =     16.30501  eV     1   --> A_1  G_1 D_1   
     e( 20 - 20) =     16.34078  eV     1   --> B_2  G_4 D_2'  
     e( 21 - 22) =     17.22481  eV     2   --> E    G_5 D_5   
     e( 23 - 23) =     18.22445  eV     1   --> B_1  G_3 D_2   
     e( 24 - 24) =     19.39123  eV     1   -->   ?

 **************************************************************************

 **************************************************************************

                    xk=(   0.00000,   0.41000,   0.00000  )

     Band symmetry, C_4v (4mm)  point group:

     e(  1 -  1) =    -23.76671  eV     1   --> A_1  G_1 D_1   
     e(  2 -  2) =    -11.31681  eV     1   --> A_1  G_1 D_1   
     e(  3 -  4) =     -7.85582  eV     2   --> E    G_5 D_5   
     e(  5 -  5) =     -7.82405  eV     1   --> A_1  G_1 D_1   
     e(  6 -  6) =      0.34772  eV     1   --> A_1  G_1 D_1   
     e(  7 -  8) =      0.73304  eV     2   --> E    G_5 D_5   
     e(  9 -  9) =      5.96420  eV     1   --> A_1  G_1 D_1   
     e( 10 - 10) =      7.29205  eV     1   --> B_2  G_4 D_2'  
     e( 11 - 12) =      8.99865  eV     2   --> E    G_5 D_5   
     e( 13 - 13) =      9.19493  eV     1   --> B_1  G_3 D_2   
     e( 14 - 14) =      9.87003  eV     1   --> A_1  G_1 D_1   
     e( 15 - 15) =     13.10060  eV     1   --> A_1  G_1 D_1   
     e( 16 - 16) =     13.28208  eV     1   --> B_2  G_4 D_2'  
     e( 17 - 18) =     13.78714  eV     2   --> E    G_5 D_5   
     e( 19 - 19) =     16.25801  eV     1   --> A_1  G_1 D_1   
     e( 20 - 20) =     16.35231  eV     1   --> B_2  G_4 D_2'  
     e( 21 - 22) =     17.20387  eV     2   --> E    G_5 D_5   
     e( 23 - 23) =     18.17898  eV     1   --> B_1  G_3 D_2   
     e( 24 - 24) =     19.41684  eV     1   -->   ?

 **************************************************************************

 **************************************************************************

                    xk=(   0.00000,   0.42000,   0.00000  )

     Band symmetry, C_4v (4mm)  point group:

     e(  1 -  1) =    -23.76659  eV     1   --> A_1  G_1 D_1   
     e(  2 -  2) =    -11.31648  eV     1   --> A_1  G_1 D_1   
     e(  3 -  4) =     -7.85664  eV     2   --> E    G_5 D_5   
     e(  5 -  5) =     -7.82506  eV     1   --> A_1  G_1 D_1   
     e(  6 -  6) =      0.33736  eV     1   --> A_1  G_1 D_1   
     e(  7 -  8) =      0.73050  eV     2   --> E    G_5 D_5   
     e(  9 -  9) =      6.00021  eV     1   --> A_1  G_1 D_1   
     e( 10 - 10) =      7.26735  eV     1   --> B_2  G_4 D_2'  
     e( 11 - 12) =      9.04236  eV     2   --> E    G_5 D_5   
     e( 13 - 13) =      9.20835  eV     1   --> B_1  G_3 D_2   
     e( 14 - 14) =      9.90297  eV     1   --> A_1  G_1 D_1   
     e( 15 - 15) =     13.01011  eV     1   --> A_1  G_1 D_1   
     e( 16 - 16) =     13.34940  eV     1   --> B_2  G_4 D_2'  
     e( 17 - 18) =     13.73670  eV     2   --> E    G_5 D_5   
     e( 19 - 19) =     16.21369  eV     1   --> A_1  G_1 D_1   
     e( 20 - 20) =     16.36423  eV     1   --> B_2  G_4 D_2'  
     e( 21 - 22) =     17.18085  eV     2   --> E    G_5 D_5   
     e( 23 - 23) =     18.13219  eV     1   --> B_1  G_3 D_2   
     e( 24 - 24) =     19.44282  eV     1   -->   ?

 **************************************************************************

 **************************************************************************

                    xk=(   0.00000,   0.43000,   0.00000  )

     Band symmetry, C_4v (4mm)  point group:

     e(  1 -  1) =    -23.76646  eV     1   --> A_1  G_1 D_1   
     e(  2 -  2) =    -11.31611  eV     1   --> A_1  G_1 D_1   
     e(  3 -  4) =     -7.85747  eV     2   --> E    G_5 D_5   
     e(  5 -  5) =     -7.82620  eV     1   --> A_1  G_1 D_1   
     e(  6 -  6) =      0.32749  eV     1   --> A_1  G_1 D_1   
     e(  7 -  8) =      0.72796  eV     2   --> E    G_5 D_5   
     e(  9 -  9) =      6.03637  eV     1   --> A_1  G_1 D_1   
     e( 10 - 10) =      7.24285  eV     1   --> B_2  G_4 D_2'  
     e( 11 - 12) =      9.08687  eV     2   --> E    G_5 D_5   
     e( 13 - 13) =      9.22197  eV     1   --> B_1  G_3 D_2   
     e( 14 - 14) =      9.93502  eV     1   --> A_1  G_1 D_1   
     e( 15 - 15) =     12.92041  eV     1   --> A_1  G_1 D_1   
     e( 16 - 16) =     13.41732  eV     1   --> B_2  G_4 D_2'  
     e( 17 - 18) =     13.68697  eV     2   --> E    G_5 D_5   
     e( 19 - 19) =     16.17217  eV     1   --> A_1  G_1 D_1   
     e( 20 - 20) =     16.37657  eV     1   --> B_2  G_4 D_2'  
     e( 21 - 22) =     17.15581  eV     2   --> E    G_5 D_5   
     e( 23 - 23) =     18.08417  eV     1   --> B_1  G_3 D_2   
     e( 24 - 24) =     19.46911  eV     1   -->   ?

 **************************************************************************

 **************************************************************************

                    xk=(   0.00000,   0.44000,   0.00000  )

     Band symmetry, C_4v (4mm)  point group:

     e(  1 -  1) =    -23.76634  eV     1   --> A_1  G_1 D_1   
     e(  2 -  2) =    -11.31570  eV     1   --> A_1  G_1 D_1   
     e(  3 -  4) =     -7.85831  eV     2   --> E    G_5 D_5   
     e(  5 -  5) =     -7.82747  eV     1   --> A_1  G_1 D_1   
     e(  6 -  6) =      0.31813  eV     1   --> A_1  G_1 D_1   
     e(  7 -  8) =      0.72544  eV     2   --> E    G_5 D_5   
     e(  9 -  9) =      6.07267  eV     1   --> A_1  G_1 D_1   
     e( 10 - 10) =      7.21855  eV     1   --> B_2  G_4 D_2'  
     e( 11 - 12) =      9.13215  eV     2   --> E    G_5 D_5   
     e( 13 - 13) =      9.23580  eV     1   --> B_1  G_3 D_2   
     e( 14 - 14) =      9.96604  eV     1   --> A_1  G_1 D_1   
     e( 15 - 15) =     12.83157  eV     1   --> A_1  G_1 D_1   
     e( 16 - 16) =     13.48581  eV     1   --> B_2  G_4 D_2'  
     e( 17 - 18) =     13.63797  eV     2   --> E    G_5 D_5   
     e( 19 - 19) =     16.13358  eV     1   --> A_1  G_1 D_1   
     e( 20 - 20) =     16.38933  eV     1   --> B_2  G_4 D_2'  
     e( 21 - 22) =     17.12882  eV     2   --> E    G_5 D_5   
     e( 23 - 23) =     18.03504  eV     1   --> B_1  G_3 D_2   
     e( 24 - 24) =     19.49563  eV     1   -->   ?

 **************************************************************************

 **************************************************************************

                    xk=(   0.00000,   0.45000,   0.00000  )

     Band symmetry, C_4v (4mm)  point group:

     e(  1 -  1) =    -23.76621  eV     1   --> A_1  G_1 D_1   
     e(  2 -  2) =    -11.31525  eV     1   --> A_1  G_1 D_1   
     e(  3 -  4) =     -7.85915  eV     2   --> E    G_5 D_5   
     e(  5 -  5) =     -7.82888  eV     1   --> A_1  G_1 D_1   
     e(  6 -  6) =      0.30930  eV     1   --> A_1  G_1 D_1   
     e(  7 -  8) =      0.72294  eV     2   --> E    G_5 D_5   
     e(  9 -  9) =      6.10908  eV     1   --> A_1  G_1 D_1   
     e( 10 - 10) =      7.19447  eV     1   --> B_2  G_4 D_2'  
     e( 11 - 12) =      9.17818  eV     2   --> E    G_5 D_5   
     e( 13 - 13) =      9.24980  eV     1   --> B_1  G_3 D_2   
     e( 14 - 14) =      9.99590  eV     1   --> A_1  G_1 D_1   
     e( 15 - 15) =     12.74364  eV     1   --> A_1  G_1 D_1   
     e( 16 - 16) =     13.55481  eV     1   --> B_2  G_4 D_2'  
     e( 17 - 18) =     13.58972  eV     2   --> E    G_5 D_5   
     e( 19 - 19) =     16.09804  eV     1   --> A_1  G_1 D_1   
     e( 20 - 20) =     16.40254  eV     1   --> B_2  G_4 D_2'  
     e( 21 - 22) =     17.09993  eV     2   --> E    G_5 D_5   
     e( 23 - 23) =     17.98491  eV     1   --> B_1  G_3 D_2   
     e( 24 - 24) =     19.52232  eV     1   -->   ?

 **************************************************************************

 **************************************************************************

                    xk=(   0.00000,   0.46000,   0.00000  )

     Band symmetry, C_4v (4mm)  point group:

     e(  1 -  1) =    -23.76608  eV     1   --> A_1  G_1 D_1   
     e(  2 -  2) =    -11.31476  eV     1   --> A_1  G_1 D_1   
     e(  3 -  4) =     -7.86000  eV     2   --> E    G_5 D_5   
     e(  5 -  5) =     -7.83043  eV     1   --> A_1  G_1 D_1   
     e(  6 -  6) =      0.30100  eV     1   --> A_1  G_1 D_1   
     e(  7 -  8) =      0.72045  eV     2   --> E    G_5 D_5   
     e(  9 -  9) =      6.14561  eV     1   --> A_1  G_1 D_1   
     e( 10 - 10) =      7.17064  eV     1   --> B_2  G_4 D_2'  
     e( 11 - 12) =      9.22494  eV     2   --> E    G_5 D_5   
     e( 13 - 13) =      9.26399  eV     1   --> B_1  G_3 D_2   
     e( 14 - 14) =     10.02444  eV     1   --> A_1  G_1 D_1   
     e( 15 - 15) =     12.65665  eV     1   --> A_1  G_1 D_1   
     e( 16 - 17) =     13.54225  eV     2   --> E    G_5 D_5   
     e( 18 - 18) =     13.62427  eV     1   --> B_2  G_4 D_2'  
     e( 19 - 19) =     16.06568  eV     1   --> A_1  G_1 D_1   
     e( 20 - 20) =     16.41623  eV     1   --> B_2  G_4 D_2'  
     e( 21 - 22) =     17.06920  eV     2   --> E    G_5 D_5   
     e( 23 - 23) =     17.93390  eV     1   --> B_1  G_3 D_2   
     e( 24 - 24) =     19.54912  eV     1   -->   ?

 **************************************************************************

 **************************************************************************

                    xk=(   0.00000,   0.47000,   0.00000  )

     Band symmetry, C_4v (4mm)  point group:

     e(  1 -  1) =    -23.76595  eV     1   --> A_1  G_1 D_1   
     e(  2 -  2) =    -11.31422  eV     1   --> A_1  G_1 D_1   
     e(  3 -  4) =     -7.86085  eV     2   --> E    G_5 D_5   
     e(  5 -  5) =     -7.83212  eV     1   --> A_1  G_1 D_1   
     e(  6 -  6) =      0.29324  eV     1   --> A_1  G_1 D_1   
     e(  7 -  8) =      0.71799  eV     2   --> E    G_5 D_5   
     e(  9 -  9) =      6.18223  eV     1   --> A_1  G_1 D_1   
     e( 10 - 10) =      7.14706  eV     1   --> B_2  G_4 D_2'  
     e( 11 - 12) =      9.27241  eV     2   --> E    G_5 D_5   
     e( 13 - 13) =      9.27834  eV     1   --> B_1  G_3 D_2   
     e( 14 - 14) =     10.05154  eV     1   --> A_1  G_1 D_1   
     e( 15 - 15) =     12.57068  eV     1   --> A_1  G_1 D_1   
     e( 16 - 17) =     13.49556  eV     2   --> E    G_5 D_5   
     e( 18 - 18) =     13.69416  eV     1   --> B_2  G_4 D_2'  
     e( 19 - 19) =     16.03662  eV     1   --> A_1  G_1 D_1   
     e( 20 - 20) =     16.43042  eV     1   --> B_2  G_4 D_2'  
     e( 21 - 22) =     17.03667  eV     2   --> E    G_5 D_5   
     e( 23 - 23) =     17.88212  eV     1   --> B_1  G_3 D_2   
     e( 24 - 24) =     19.57596  eV     1   -->   ?

 **************************************************************************

 **************************************************************************

                    xk=(   0.00000,   0.48000,   0.00000  )

     Band symmetry, C_4v (4mm)  point group:

     e(  1 -  1) =    -23.76582  eV     1   --> A_1  G_1 D_1   
     e(  2 -  2) =    -11.31364  eV     1   --> A_1  G_1 D_1   
     e(  3 -  4) =     -7.86170  eV     2   --> E    G_5 D_5   
     e(  5 -  5) =     -7.83394  eV     1   --> A_1  G_1 D_1   
     e(  6 -  6) =      0.28604  eV     1   --> A_1  G_1 D_1   
     e(  7 -  8) =      0.71554  eV     2   --> E    G_5 D_5   
     e(  9 -  9) =      6.21893  eV     1   --> A_1  G_1 D_1   
     e( 10 - 10) =      7.12375  eV     1   --> B_2  G_4 D_2'  
     e( 11 - 11) =      9.29285  eV     1   --> B_1  G_3 D_2   
     e( 12 - 13) =      9.32056  eV     2   --> E    G_5 D_5   
     e( 14 - 14) =     10.07706  eV     1   --> A_1  G_1 D_1   
     e( 15 - 15) =     12.48576  eV     1   --> A_1  G_1 D_1   
     e( 16 - 17) =     13.44969  eV     2   --> E    G_5 D_5   
     e( 18 - 18) =     13.76440  eV     1   --> B_2  G_4 D_2'  
     e( 19 - 19) =     16.01098  eV     1   --> A_1  G_1 D_1   
     e( 20 - 20) =     16.44514  eV     1   --> B_2  G_4 D_2'  
     e( 21 - 22) =     17.00241  eV     2   --> E    G_5 D_5   
     e( 23 - 23) =     17.82971  eV     1   --> B_1  G_3 D_2   
     e( 24 - 24) =     19.58105  eV     1   --> B_1  G_3 D_2   

 **************************************************************************

 **************************************************************************

                    xk=(   0.00000,   0.49000,   0.00000  )

     Band symmetry, C_4v (4mm)  point group:

     e(  1 -  1) =    -23.76569  eV     1   --> A_1  G_1 D_1   
     e(  2 -  2) =    -11.31301  eV     1   --> A_1  G_1 D_1   
     e(  3 -  4) =     -7.86256  eV     2   --> E    G_5 D_5   
     e(  5 -  5) =     -7.83590  eV     1   --> A_1  G_1 D_1   
     e(  6 -  6) =      0.27938  eV     1   --> A_1  G_1 D_1   
     e(  7 -  8) =      0.71313  eV     2   --> E    G_5 D_5   
     e(  9 -  9) =      6.25569  eV     1   --> A_1  G_1 D_1   
     e( 10 - 10) =      7.10073  eV     1   --> B_2  G_4 D_2'  
     e( 11 - 11) =      9.30749  eV     1   --> B_1  G_3 D_2   
     e( 12 - 13) =      9.36937  eV     2   --> E    G_5 D_5   
     e( 14 - 14) =     10.10085  eV     1   --> A_1  G_1 D_1   
     e( 15 - 15) =     12.40194  eV     1   --> A_1  G_1 D_1   
     e( 16 - 17) =     13.40465  eV     2   --> E    G_5 D_5   
     e( 18 - 18) =     13.83495  eV     1   --> B_2  G_4 D_2'  
     e( 19 - 19) =     15.98888  eV     1   --> A_1  G_1 D_1   
     e( 20 - 20) =     16.46043  eV     1   --> B_2  G_4 D_2'  
     e( 21 - 22) =     16.96646  eV     2   --> E    G_5 D_5   
     e( 23 - 23) =     17.77678  eV     1   --> B_1  G_3 D_2   
     e( 24 - 24) =     19.55532  eV     1   --> B_1  G_3 D_2   

 **************************************************************************

 **************************************************************************

                    xk=(   0.00000,   0.50000,   0.00000  )

     Band symmetry, C_4v (4mm)  point group:

     e(  1 -  1) =    -23.76556  eV     1   --> A_1  G_1 D_1   
     e(  2 -  2) =    -11.31235  eV     1   --> A_1  G_1 D_1   
     e(  3 -  4) =     -7.86341  eV     2   --> E    G_5 D_5   
     e(  5 -  5) =     -7.83799  eV     1   --> A_1  G_1 D_1   
     e(  6 -  6) =      0.27327  eV     1   --> A_1  G_1 D_1   
     e(  7 -  8) =      0.71074  eV     2   --> E    G_5 D_5   
     e(  9 -  9) =      6.29252  eV     1   --> A_1  G_1 D_1   
     e( 10 - 10) =      7.07800  eV     1   --> B_2  G_4 D_2'  
     e( 11 - 11) =      9.32227  eV     1   --> B_1  G_3 D_2   
     e( 12 - 13) =      9.41882  eV     2   --> E    G_5 D_5   
     e( 14 - 14) =     10.12281  eV     1   --> A_1  G_1 D_1   
     e( 15 - 15) =     12.31928  eV     1   --> A_1  G_1 D_1   
     e( 16 - 17) =     13.36047  eV     2   --> E    G_5 D_5   
     e( 18 - 18) =     13.90575  eV     1   --> B_2  G_4 D_2'  
     e( 19 - 19) =     15.97043  eV     1   --> A_1  G_1 D_1   
     e( 20 - 20) =     16.47631  eV     1   --> B_2  G_4 D_2'  
     e( 21 - 22) =     16.92887  eV     2   --> E    G_5 D_5   
     e( 23 - 23) =     17.72343  eV     1   --> B_1  G_3 D_2   
     e( 24 - 24) =     19.53099  eV     1   --> B_1  G_3 D_2   

 **************************************************************************

 **************************************************************************

                    xk=(   0.00000,   0.51000,   0.00000  )

     Band symmetry, C_4v (4mm)  point group:

     e(  1 -  1) =    -23.76543  eV     1   --> A_1  G_1 D_1   
     e(  2 -  2) =    -11.31164  eV     1   --> A_1  G_1 D_1   
     e(  3 -  4) =     -7.86427  eV     2   --> E    G_5 D_5   
     e(  5 -  5) =     -7.84022  eV     1   --> A_1  G_1 D_1   
     e(  6 -  6) =      0.26773  eV     1   --> A_1  G_1 D_1   
     e(  7 -  8) =      0.70838  eV     2   --> E    G_5 D_5   
     e(  9 -  9) =      6.32938  eV     1   --> A_1  G_1 D_1   
     e( 10 - 10) =      7.05559  eV     1   --> B_2  G_4 D_2'  
     e( 11 - 11) =      9.33717  eV     1   --> B_1  G_3 D_2   
     e( 12 - 13) =      9.46888  eV     2   --> E    G_5 D_5   
     e( 14 - 14) =     10.14279  eV     1   --> A_1  G_1 D_1   
     e( 15 - 15) =     12.23782  eV     1   --> A_1  G_1 D_1   
     e( 16 - 17) =     13.31716  eV     2   --> E    G_5 D_5   
[...]
     e( 23 - 23) =     18.26137  eV     1   --> B_2  G_4 D_2'  
     e( 24 - 24) =     19.12366  eV     1   --> B_1  G_3 D_2   

 **************************************************************************

 **************************************************************************

                    xk=(   0.00000,   0.89000,   0.00000  )

     Band symmetry, C_4v (4mm)  point group:

     e(  1 -  1) =    -23.76176  eV     1   --> A_1  G_1 D_1   
     e(  2 -  2) =    -11.27247  eV     1   --> A_1  G_1 D_1   
     e(  3 -  3) =     -7.96200  eV     1   --> A_1  G_1 D_1   
     e(  4 -  5) =     -7.88926  eV     2   --> E    G_5 D_5   
     e(  6 -  6) =      0.33241  eV     1   --> A_1  G_1 D_1   
     e(  7 -  8) =      0.65237  eV     2   --> E    G_5 D_5   
     e(  9 -  9) =      6.50736  eV     1   --> B_2  G_4 D_2'  
     e( 10 - 10) =      7.56314  eV     1   --> A_1  G_1 D_1   
     e( 11 - 11) =      9.69054  eV     1   --> A_1  G_1 D_1   
     e( 12 - 12) =      9.83408  eV     1   --> B_1  G_3 D_2   
     e( 13 - 13) =     10.15988  eV     1   --> A_1  G_1 D_1   
     e( 14 - 15) =     11.25292  eV     2   --> E    G_5 D_5   
     e( 16 - 17) =     12.68547  eV     2   --> E    G_5 D_5   
     e( 18 - 19) =     14.74872  eV     2   --> E    G_5 D_5   
     e( 20 - 20) =     15.86578  eV     1   --> B_2  G_4 D_2'  
     e( 21 - 21) =     16.10335  eV     1   --> B_1  G_3 D_2   
     e( 22 - 22) =     18.04825  eV     1   --> A_1  G_1 D_1   
     e( 23 - 23) =     18.35092  eV     1   --> B_2  G_4 D_2'  
     e( 24 - 24) =     19.12054  eV     1   --> B_1  G_3 D_2   

 **************************************************************************

 **************************************************************************

                    xk=(   0.00000,   0.90000,   0.00000  )

     Band symmetry, C_4v (4mm)  point group:

     e(  1 -  1) =    -23.76172  eV     1   --> A_1  G_1 D_1   
     e(  2 -  2) =    -11.27182  eV     1   --> A_1  G_1 D_1   
     e(  3 -  3) =     -7.96398  eV     1   --> A_1  G_1 D_1   
     e(  4 -  5) =     -7.88954  eV     2   --> E    G_5 D_5   
     e(  6 -  6) =      0.33556  eV     1   --> A_1  G_1 D_1   
     e(  7 -  8) =      0.65187  eV     2   --> E    G_5 D_5   
     e(  9 -  9) =      6.50208  eV     1   --> B_2  G_4 D_2'  
     e( 10 - 10) =      7.58127  eV     1   --> A_1  G_1 D_1   
     e( 11 - 11) =      9.68118  eV     1   --> A_1  G_1 D_1   
     e( 12 - 12) =      9.84056  eV     1   --> B_1  G_3 D_2   
     e( 13 - 13) =     10.12973  eV     1   --> A_1  G_1 D_1   
     e( 14 - 15) =     11.27266  eV     2   --> E    G_5 D_5   
     e( 16 - 17) =     12.70406  eV     2   --> E    G_5 D_5   
     e( 18 - 19) =     14.69865  eV     2   --> E    G_5 D_5   
     e( 20 - 20) =     15.87927  eV     1   --> B_2  G_4 D_2'  
     e( 21 - 21) =     16.08600  eV     1   --> B_1  G_3 D_2   
     e( 22 - 22) =     18.14179  eV     1   --> A_1  G_1 D_1   
     e( 23 - 23) =     18.44202  eV     1   --> B_2  G_4 D_2'  
     e( 24 - 24) =     19.11769  eV     1   --> B_1  G_3 D_2   

 **************************************************************************

 **************************************************************************

                    xk=(   0.00000,   0.91000,   0.00000  )

     Band symmetry, C_4v (4mm)  point group:

     e(  1 -  1) =    -23.76168  eV     1   --> A_1  G_1 D_1   
     e(  2 -  2) =    -11.27122  eV     1   --> A_1  G_1 D_1   
     e(  3 -  3) =     -7.96579  eV     1   --> A_1  G_1 D_1   
     e(  4 -  5) =     -7.88980  eV     2   --> E    G_5 D_5   
     e(  6 -  6) =      0.33846  eV     1   --> A_1  G_1 D_1   
     e(  7 -  8) =      0.65141  eV     2   --> E    G_5 D_5   
     e(  9 -  9) =      6.49729  eV     1   --> B_2  G_4 D_2'  
     e( 10 - 10) =      7.59788  eV     1   --> A_1  G_1 D_1   
     e( 11 - 11) =      9.67338  eV     1   --> A_1  G_1 D_1   
     e( 12 - 12) =      9.84646  eV     1   --> B_1  G_3 D_2   
     e( 13 - 13) =     10.10140  eV     1   --> A_1  G_1 D_1   
     e( 14 - 15) =     11.29014  eV     2   --> E    G_5 D_5   
     e( 16 - 17) =     12.72318  eV     2   --> E    G_5 D_5   
     e( 18 - 19) =     14.65137  eV     2   --> E    G_5 D_5   
     e( 20 - 20) =     15.89128  eV     1   --> B_2  G_4 D_2'  
     e( 21 - 21) =     16.07025  eV     1   --> B_1  G_3 D_2   
     e( 22 - 22) =     18.23378  eV     1   --> A_1  G_1 D_1   
     e( 23 - 23) =     18.53457  eV     1   --> B_2  G_4 D_2'  
     e( 24 - 24) =     19.11511  eV     1   --> B_1  G_3 D_2   

 **************************************************************************

 **************************************************************************

                    xk=(   0.00000,   0.92000,   0.00000  )

     Band symmetry, C_4v (4mm)  point group:

     e(  1 -  1) =    -23.76165  eV     1   --> A_1  G_1 D_1   
     e(  2 -  2) =    -11.27068  eV     1   --> A_1  G_1 D_1   
     e(  3 -  3) =     -7.96743  eV     1   --> A_1  G_1 D_1   
     e(  4 -  5) =     -7.89003  eV     2   --> E    G_5 D_5   
     e(  6 -  6) =      0.34110  eV     1   --> A_1  G_1 D_1   
     e(  7 -  8) =      0.65101  eV     2   --> E    G_5 D_5   
     e(  9 -  9) =      6.49301  eV     1   --> B_2  G_4 D_2'  
     e( 10 - 10) =      7.61293  eV     1   --> A_1  G_1 D_1   
     e( 11 - 11) =      9.66707  eV     1   --> A_1  G_1 D_1   
     e( 12 - 12) =      9.85177  eV     1   --> B_1  G_3 D_2   
     e( 13 - 13) =     10.07506  eV     1   --> A_1  G_1 D_1   
     e( 14 - 15) =     11.30543  eV     2   --> E    G_5 D_5   
     e( 16 - 17) =     12.74237  eV     2   --> E    G_5 D_5   
     e( 18 - 19) =     14.60729  eV     2   --> E    G_5 D_5   
     e( 20 - 20) =     15.90189  eV     1   --> B_2  G_4 D_2'  
     e( 21 - 21) =     16.05612  eV     1   --> B_1  G_3 D_2   
     e( 22 - 22) =     18.32344  eV     1   --> A_1  G_1 D_1   
     e( 23 - 23) =     18.62848  eV     1   --> B_2  G_4 D_2'  
     e( 24 - 24) =     19.11281  eV     1   --> B_1  G_3 D_2   

 **************************************************************************

 **************************************************************************

                    xk=(   0.00000,   0.93000,   0.00000  )

     Band symmetry, C_4v (4mm)  point group:

     e(  1 -  1) =    -23.76162  eV     1   --> A_1  G_1 D_1   
     e(  2 -  2) =    -11.27020  eV     1   --> A_1  G_1 D_1   
     e(  3 -  3) =     -7.96888  eV     1   --> A_1  G_1 D_1   
     e(  4 -  5) =     -7.89023  eV     2   --> E    G_5 D_5   
     e(  6 -  6) =      0.34347  eV     1   --> A_1  G_1 D_1   
     e(  7 -  8) =      0.65065  eV     2   --> E    G_5 D_5   
     e(  9 -  9) =      6.48922  eV     1   --> B_2  G_4 D_2'  
     e( 10 - 10) =      7.62634  eV     1   --> A_1  G_1 D_1   
     e( 11 - 11) =      9.66215  eV     1   --> A_1  G_1 D_1   
     e( 12 - 12) =      9.85649  eV     1   --> B_1  G_3 D_2   
     e( 13 - 13) =     10.05093  eV     1   --> A_1  G_1 D_1   
     e( 14 - 15) =     11.31864  eV     2   --> E    G_5 D_5   
     e( 16 - 17) =     12.76113  eV     2   --> E    G_5 D_5   
     e( 18 - 19) =     14.56683  eV     2   --> E    G_5 D_5   
     e( 20 - 20) =     15.91113  eV     1   --> B_2  G_4 D_2'  
     e( 21 - 21) =     16.04361  eV     1   --> B_1  G_3 D_2   
     e( 22 - 22) =     18.40983  eV     1   --> A_1  G_1 D_1   
     e( 23 - 23) =     18.72366  eV     1   --> B_2  G_4 D_2'  
     e( 24 - 24) =     19.11079  eV     1   --> B_1  G_3 D_2   

 **************************************************************************

 **************************************************************************

                    xk=(   0.00000,   0.94000,   0.00000  )

     Band symmetry, C_4v (4mm)  point group:

     e(  1 -  1) =    -23.76159  eV     1   --> A_1  G_1 D_1   
     e(  2 -  2) =    -11.26978  eV     1   --> A_1  G_1 D_1   
     e(  3 -  3) =     -7.97015  eV     1   --> A_1  G_1 D_1   
     e(  4 -  5) =     -7.89041  eV     2   --> E    G_5 D_5   
     e(  6 -  6) =      0.34555  eV     1   --> A_1  G_1 D_1   
     e(  7 -  8) =      0.65035  eV     2   --> E    G_5 D_5   
     e(  9 -  9) =      6.48595  eV     1   --> B_2  G_4 D_2'  
     e( 10 - 10) =      7.63808  eV     1   --> A_1  G_1 D_1   
     e( 11 - 11) =      9.65848  eV     1   --> A_1  G_1 D_1   
     e( 12 - 12) =      9.86059  eV     1   --> B_1  G_3 D_2   
     e( 13 - 13) =     10.02922  eV     1   --> A_1  G_1 D_1   
     e( 14 - 15) =     11.32985  eV     2   --> E    G_5 D_5   
     e( 16 - 17) =     12.77892  eV     2   --> E    G_5 D_5   
     e( 18 - 19) =     14.53044  eV     2   --> E    G_5 D_5   
     e( 20 - 20) =     15.91905  eV     1   --> B_2  G_4 D_2'  
     e( 21 - 21) =     16.03275  eV     1   --> B_1  G_3 D_2   
     e( 22 - 22) =     18.49173  eV     1   --> A_1  G_1 D_1   
     e( 23 - 23) =     18.81999  eV     1   --> B_2  G_4 D_2'  
     e( 24 - 24) =     19.10904  eV     1   --> B_1  G_3 D_2   

 **************************************************************************

 **************************************************************************

                    xk=(   0.00000,   0.95000,   0.00000  )

     Band symmetry, C_4v (4mm)  point group:

     e(  1 -  1) =    -23.76157  eV     1   --> A_1  G_1 D_1   
     e(  2 -  2) =    -11.26942  eV     1   --> A_1  G_1 D_1   
     e(  3 -  3) =     -7.97123  eV     1   --> A_1  G_1 D_1   
     e(  4 -  5) =     -7.89056  eV     2   --> E    G_5 D_5   
     e(  6 -  6) =      0.34734  eV     1   --> A_1  G_1 D_1   
     e(  7 -  8) =      0.65009  eV     2   --> E    G_5 D_5   
     e(  9 -  9) =      6.48317  eV     1   --> B_2  G_4 D_2'  
     e( 10 - 10) =      7.64809  eV     1   --> A_1  G_1 D_1   
     e( 11 - 11) =      9.65590  eV     1   --> A_1  G_1 D_1   
     e( 12 - 12) =      9.86408  eV     1   --> B_1  G_3 D_2   
     e( 13 - 13) =     10.01019  eV     1   --> A_1  G_1 D_1   
     e( 14 - 15) =     11.33915  eV     2   --> E    G_5 D_5   
     e( 16 - 17) =     12.79520  eV     2   --> E    G_5 D_5   
     e( 18 - 19) =     14.49860  eV     2   --> E    G_5 D_5   
     e( 20 - 20) =     15.92569  eV     1   --> B_2  G_4 D_2'  
     e( 21 - 21) =     16.02354  eV     1   --> B_1  G_3 D_2   
     e( 22 - 22) =     18.56757  eV     1   --> A_1  G_1 D_1   
     e( 23 - 23) =     18.91736  eV     1   --> B_2  G_4 D_2'  
     e( 24 - 24) =     19.10756  eV     1   --> B_1  G_3 D_2   

 **************************************************************************

 **************************************************************************

                    xk=(   0.00000,   0.96000,   0.00000  )

     Band symmetry, C_4v (4mm)  point group:

     e(  1 -  1) =    -23.76155  eV     1   --> A_1  G_1 D_1   
     e(  2 -  2) =    -11.26912  eV     1   --> A_1  G_1 D_1   
     e(  3 -  3) =     -7.97212  eV     1   --> A_1  G_1 D_1   
     e(  4 -  5) =     -7.89068  eV     2   --> E    G_5 D_5   
     e(  6 -  6) =      0.34881  eV     1   --> A_1  G_1 D_1   
     e(  7 -  8) =      0.64987  eV     2   --> E    G_5 D_5   
     e(  9 -  9) =      6.48090  eV     1   --> B_2  G_4 D_2'  
     e( 10 - 10) =      7.65633  eV     1   --> A_1  G_1 D_1   
     e( 11 - 11) =      9.65421  eV     1   --> A_1  G_1 D_1   
     e( 12 - 12) =      9.86695  eV     1   --> B_1  G_3 D_2   
     e( 13 - 13) =      9.99411  eV     1   --> A_1  G_1 D_1   
     e( 14 - 15) =     11.34663  eV     2   --> E    G_5 D_5   
     e( 16 - 17) =     12.80942  eV     2   --> E    G_5 D_5   
     e( 18 - 19) =     14.47175  eV     2   --> E    G_5 D_5   
     e( 20 - 20) =     15.93108  eV     1   --> B_2  G_4 D_2'  
     e( 21 - 21) =     16.01599  eV     1   --> B_1  G_3 D_2   
     e( 22 - 22) =     18.63537  eV     1   --> A_1  G_1 D_1   
     e( 23 - 23) =     19.01562  eV     1   --> B_2  G_4 D_2'  
     e( 24 - 24) =     19.10635  eV     1   --> B_1  G_3 D_2   

 **************************************************************************

 **************************************************************************

                    xk=(   0.00000,   0.97000,   0.00000  )

     Band symmetry, C_4v (4mm)  point group:

     e(  1 -  1) =    -23.76154  eV     1   --> A_1  G_1 D_1   
     e(  2 -  2) =    -11.26889  eV     1   --> A_1  G_1 D_1   
     e(  3 -  3) =     -7.97282  eV     1   --> A_1  G_1 D_1   
     e(  4 -  5) =     -7.89078  eV     2   --> E    G_5 D_5   
     e(  6 -  6) =      0.34996  eV     1   --> A_1  G_1 D_1   
     e(  7 -  8) =      0.64971  eV     2   --> E    G_5 D_5   
     e(  9 -  9) =      6.47913  eV     1   --> B_2  G_4 D_2'  
     e( 10 - 10) =      7.66278  eV     1   --> A_1  G_1 D_1   
     e( 11 - 11) =      9.65320  eV     1   --> A_1  G_1 D_1   
     e( 12 - 12) =      9.86919  eV     1   --> B_1  G_3 D_2   
     e( 13 - 13) =      9.98123  eV     1   --> A_1  G_1 D_1   
     e( 14 - 15) =     11.35237  eV     2   --> E    G_5 D_5   
     e( 16 - 17) =     12.82109  eV     2   --> E    G_5 D_5   
     e( 18 - 19) =     14.45033  eV     2   --> E    G_5 D_5   
     e( 20 - 20) =     15.93524  eV     1   --> B_2  G_4 D_2'  
     e( 21 - 21) =     16.01011  eV     1   --> B_1  G_3 D_2   
     e( 22 - 22) =     18.69268  eV     1   --> A_1  G_1 D_1   
     e( 23 - 23) =     19.10540  eV     1   --> B_1  G_3 D_2   
     e( 24 - 24) =     19.11448  eV     1   --> B_2  G_4 D_2'  

 **************************************************************************

 **************************************************************************

                    xk=(   0.00000,   0.98000,   0.00000  )

     Band symmetry, C_4v (4mm)  point group:

     e(  1 -  1) =    -23.76153  eV     1   --> A_1  G_1 D_1   
     e(  2 -  2) =    -11.26873  eV     1   --> A_1  G_1 D_1   
     e(  3 -  3) =     -7.97332  eV     1   --> A_1  G_1 D_1   
     e(  4 -  5) =     -7.89084  eV     2   --> E    G_5 D_5   
     e(  6 -  6) =      0.35079  eV     1   --> A_1  G_1 D_1   
     e(  7 -  8) =      0.64959  eV     2   --> E    G_5 D_5   
     e(  9 -  9) =      6.47787  eV     1   --> B_2  G_4 D_2'  
     e( 10 - 10) =      7.66740  eV     1   --> A_1  G_1 D_1   
     e( 11 - 11) =      9.65266  eV     1   --> A_1  G_1 D_1   
     e( 12 - 12) =      9.87079  eV     1   --> B_1  G_3 D_2   
     e( 13 - 13) =      9.97182  eV     1   --> A_1  G_1 D_1   
     e( 14 - 15) =     11.35642  eV     2   --> E    G_5 D_5   
     e( 16 - 17) =     12.82978  eV     2   --> E    G_5 D_5   
     e( 18 - 19) =     14.43473  eV     2   --> E    G_5 D_5   
     e( 20 - 20) =     15.93820  eV     1   --> B_2  G_4 D_2'  
     e( 21 - 21) =     16.00591  eV     1   --> B_1  G_3 D_2   
     e( 22 - 22) =     18.73669  eV     1   --> A_1  G_1 D_1   
     e( 23 - 23) =     19.10473  eV     1   --> B_1  G_3 D_2   
     e( 24 - 24) =     19.21328  eV     1   --> B_2  G_4 D_2'  

 **************************************************************************

 **************************************************************************

                    xk=(   0.00000,   0.99000,   0.00000  )

     Band symmetry, C_4v (4mm)  point group:

     e(  1 -  1) =    -23.76153  eV     1   --> A_1  G_1 D_1   
     e(  2 -  2) =    -11.26863  eV     1   --> A_1  G_1 D_1   
     e(  3 -  3) =     -7.97361  eV     1   --> A_1  G_1 D_1   
     e(  4 -  5) =     -7.89088  eV     2   --> E    G_5 D_5   
     e(  6 -  6) =      0.35129  eV     1   --> A_1  G_1 D_1   
     e(  7 -  8) =      0.64952  eV     2   --> E    G_5 D_5   
     e(  9 -  9) =      6.47711  eV     1   --> B_2  G_4 D_2'  
     e( 10 - 10) =      7.67019  eV     1   --> A_1  G_1 D_1   
     e( 11 - 11) =      9.65242  eV     1   --> A_1  G_1 D_1   
     e( 12 - 12) =      9.87175  eV     1   --> B_1  G_3 D_2   
     e( 13 - 13) =      9.96608  eV     1   --> A_1  G_1 D_1   
     e( 14 - 15) =     11.35883  eV     2   --> E    G_5 D_5   
     e( 16 - 17) =     12.83513  eV     2   --> E    G_5 D_5   
     e( 18 - 19) =     14.42525  eV     2   --> E    G_5 D_5   
     e( 20 - 20) =     15.93998  eV     1   --> B_2  G_4 D_2'  
     e( 21 - 21) =     16.00339  eV     1   --> B_1  G_3 D_2   
     e( 22 - 22) =     18.76459  eV     1   --> A_1  G_1 D_1   
     e( 23 - 23) =     19.10433  eV     1   --> B_1  G_3 D_2   
     e( 24 - 24) =     19.30924  eV     1   --> B_2  G_4 D_2'  

 **************************************************************************

 **************************************************************************

                    xk=(   0.00000,   1.00000,   0.00000  )

     point group D_4h(4/mmm)
     there are 10 classes
     the character table:

       E     2C4   C2    2C2'  2C2'' i     2S4   s_h   2s_v  2s_d 
A_1g   1.00  1.00  1.00  1.00  1.00  1.00  1.00  1.00  1.00  1.00
A_2g   1.00  1.00  1.00 -1.00 -1.00  1.00  1.00  1.00 -1.00 -1.00
B_1g   1.00 -1.00  1.00  1.00 -1.00  1.00 -1.00  1.00  1.00 -1.00
B_2g   1.00 -1.00  1.00 -1.00  1.00  1.00 -1.00  1.00 -1.00  1.00
E_g    2.00  0.00 -2.00  0.00  0.00  2.00  0.00 -2.00  0.00  0.00
A_1u   1.00  1.00  1.00  1.00  1.00 -1.00 -1.00 -1.00 -1.00 -1.00
A_2u   1.00  1.00  1.00 -1.00 -1.00 -1.00 -1.00 -1.00  1.00  1.00
B_1u   1.00 -1.00  1.00  1.00 -1.00 -1.00  1.00 -1.00 -1.00  1.00
B_2u   1.00 -1.00  1.00 -1.00  1.00 -1.00  1.00 -1.00  1.00 -1.00
E_u    2.00  0.00 -2.00  0.00  0.00 -2.00  0.00  2.00  0.00  0.00

     the symmetry operations in each class and the name of the first element:

     E        1
                                                                 
     2C4      7    8
                                                                 
     C2       3
                                                                 
     2C2'     2    4
                                                                 
     2C2''    5    6
                                                                 
     i        9
                                                                 
     2S4     15   16
                                                                 
     s_h     11
                                                                 
     2s_v    10   12
                                                                 
     2s_d    13   14
                                                                 

     Band symmetry, D_4h(4/mmm) point group:

     e(  1 -  1) =    -23.76152  eV     1   --> A_1g X_1  M_1  
     e(  2 -  2) =    -11.26860  eV     1   --> A_1g X_1  M_1  
     e(  3 -  3) =     -7.97371  eV     1   --> A_2u X_4' M_4' 
     e(  4 -  5) =     -7.89090  eV     2   --> E_u  X_5' M_5' 
     e(  6 -  6) =      0.35145  eV     1   --> A_2u X_4' M_4' 
     e(  7 -  8) =      0.64949  eV     2   --> E_u  X_5' M_5' 
     e(  9 -  9) =      6.47686  eV     1   --> B_2g X_3  M_3  
     e( 10 - 10) =      7.67111  eV     1   --> A_1g X_1  M_1  
     e( 11 - 11) =      9.65235  eV     1   --> A_2u X_4' M_4' 
     e( 12 - 12) =      9.87207  eV     1   --> B_1g X_2  M_2  
     e( 13 - 13) =      9.96414  eV     1   --> A_1g X_1  M_1  
     e( 14 - 15) =     11.35963  eV     2   --> E_g  X_5  M_5  
     e( 16 - 17) =     12.83694  eV     2   --> E_u  X_5' M_5' 
     e( 18 - 19) =     14.42206  eV     2   --> E_g  X_5  M_5  
     e( 20 - 20) =     15.94057  eV     1   --> B_2g X_3  M_3  
     e( 21 - 21) =     16.00254  eV     1   --> B_2u X_3' M_3' 
     e( 22 - 22) =     18.77416  eV     1   --> A_1g X_1  M_1  
     e( 23 - 23) =     19.10420  eV     1   --> B_1g X_2  M_2  
     e( 24 - 24) =     19.37248  eV     1   --> B_2g X_3  M_3  

 **************************************************************************
 
     BANDS        :     16.59s CPU     17.62s WALL

 
   This run was terminated on:  12: 6:12  23Jun2022            

=------------------------------------------------------------------------------=
   JOB DONE.
=------------------------------------------------------------------------------=
