 3321

    1
0.0000000000e+00 0.0000000000e+00 0.0000000000e+00
0.0000000000e+00 0.0000000000e+00 0.0000000000e+00
     1      1      1
 1  1  1     0.0000000000e+00
 1  1  2    -1.7553483424e+01
 1  1  3     0.0000000000e+00
 1  2  1    -1.7553483424e+01
 1  2  2     0.0000000000e+00
 1  2  3     0.0000000000e+00
 1  3  1     0.0000000000e+00
 1  3  2     0.0000000000e+00
 1  3  3     0.0000000000e+00
 2  1  1    -1.7553483424e+01
 2  1  2     0.0000000000e+00
 2  1  3     0.0000000000e+00
 2  2  1     0.0000000000e+00
 2  2  2     1.7553483424e+01
 2  2  3     0.0000000000e+00
 2  3  1     0.0000000000e+00
 2  3  2     0.0000000000e+00
 2  3  3     0.0000000000e+00
 3  1  1     0.0000000000e+00
 3  1  2     0.0000000000e+00
 3  1  3     0.0000000000e+00
 3  2  1     0.0000000000e+00
 3  2  2     0.0000000000e+00
 3  2  3     0.0000000000e+00
 3  3  1     0.0000000000e+00
 3  3  2     0.0000000000e+00
 3  3  3     0.0000000000e+00

    2
0.0000000000e+00 0.0000000000e+00 0.0000000000e+00
0.0000000000e+00 0.0000000000e+00 0.0000000000e+00
     1      1      2
 1  1  1    -7.7975225892e+00
 1  1  2     4.7680810741e+00
 1  1  3     9.9982695228e+00
 1  2  1     3.5918828479e+00
 1  2  2    -1.9200958339e+00
 1  2  3    -4.6545041723e+00
 1  3  1     9.7827163470e+00
 1  3  2    -5.8956930464e+00
 1  3  3    -9.4462461105e+00
 2  1  1     3.5918828479e+00
 2  1  2    -1.9200958339e+00
 2  1  3    -4.6545041723e+00
 2  2  1    -3.9573309215e+00
 2  2  2     2.0185867646e+00
 2  2  3     4.6237110492e+00
 2  3  1    -5.8956930464e+00
 2  3  2     2.9749564122e+00
 2  3  3     5.4537927347e+00
 3  1  1     9.7827163470e+00
 3  1  2    -5.8956930464e+00
 3  1  3    -9.4462461105e+00
 3  2  1    -5.8956930464e+00
 3  2  2     2.9749564122e+00
 3  2  3     5.4537927347e+00
 3  3  1    -9.9060854719e+00
 3  3  2     5.7192811138e+00
 3  3  3     9.8703351308e+00

    3
0.0000000000e+00 0.0000000000e+00 0.0000000000e+00
0.0000000000e+00 0.0000000000e+00 0.0000000000e+00
     1      1      3
 1  1  1    -7.7975225892e+00
 1  1  2     4.7680810741e+00
 1  1  3    -9.9982695228e+00
 1  2  1     3.5918828479e+00
 1  2  2    -1.9200958339e+00
 1  2  3     4.6545041723e+00
 1  3  1    -9.7827163470e+00
 1  3  2     5.8956930464e+00
 1  3  3    -9.4462461105e+00
 2  1  1     3.5918828479e+00
 2  1  2    -1.9200958339e+00
 2  1  3     4.6545041723e+00
 2  2  1    -3.9573309215e+00
 2  2  2     2.0185867646e+00
 2  2  3    -4.6237110492e+00
 2  3  1     5.8956930464e+00
 2  3  2    -2.9749564122e+00
 2  3  3     5.4537927347e+00
 3  1  1    -9.7827163470e+00
 3  1  2     5.8956930464e+00
 3  1  3    -9.4462461105e+00
 3  2  1     5.8956930464e+00
 3  2  2    -2.9749564122e+00
 3  2  3     5.4537927347e+00
 3  3  1    -9.9060854719e+00
 3  3  2     5.7192811138e+00
 3  3  3    -9.8703351308e+00

    4
0.0000000000e+00 0.0000000000e+00 0.0000000000e+00
3.2668423048e+00 0.0000000000e+00 0.0000000000e+00
     1      1      1
 1  1  1    -5.5677241132e+00
 1  1  2     2.3620703616e+00
 1  1  3     0.0000000000e+00
 1  2  1     3.4753203218e-01
 1  2  2    -1.8337936015e-01
 1  2  3     0.0000000000e+00
 1  3  1     0.0000000000e+00
 1  3  2     0.0000000000e+00
 1  3  3    -6.6667248191e-01
 2  1  1     3.4753203218e-01
 2  1  2    -1.8337936015e-01
 2  1  3     0.0000000000e+00
 2  2  1     3.7681701667e-01
 2  2  2    -1.5295300007e-01
 2  2  3     0.0000000000e+00
 2  3  1     0.0000000000e+00
 2  3  2     0.0000000000e+00
 2  3  3    -1.0807439305e+00
 3  1  1     0.0000000000e+00
 3  1  2     0.0000000000e+00
 3  1  3    -6.6667248191e-01
 3  2  1     0.0000000000e+00
 3  2  2     0.0000000000e+00
 3  2  3    -1.0807439305e+00
 3  3  1    -1.1615929373e+00
 3  3  2    -6.3567293364e-01
 3  3  3     0.0000000000e+00

    5
0.0000000000e+00 0.0000000000e+00 0.0000000000e+00
3.2668423048e+00 0.0000000000e+00 0.0000000000e+00
     1      1      2
 1  1  1    -1.2859695769e-03
 1  1  2    -1.3142217177e-02
 1  1  3     1.0768668351e-01
 1  2  1     2.0936201667e-02
 1  2  2     3.8439211499e-03
 1  2  3    -1.1144508618e-01
 1  3  1     1.5484282265e-01
 1  3  2    -1.0915069892e-01
 1  3  3    -5.0065499482e-02
 2  1  1     2.0936201667e-02
 2  1  2     3.8439211499e-03
 2  1  3    -1.1144508618e-01
 2  2  1     1.1651921801e-01
 2  2  2     6.6214315169e-02
 2  2  3    -1.6857531032e-01
 2  3  1     6.1886159098e-02
 2  3  2     6.6729968218e-02
 2  3  3     1.8903705877e-01
 3  1  1     1.5484282265e-01
 3  1  2    -1.0915069892e-01
 3  1  3    -5.0065499482e-02
 3  2  1     6.1886159098e-02
 3  2  2     6.6729968218e-02
 3  2  3     1.8903705877e-01
 3  3  1     1.9167649319e-01
 3  3  2     2.1278057041e-02
 3  3  3     1.2438020946e-01

    6
0.0000000000e+00 0.0000000000e+00 0.0000000000e+00
3.2668423048e+00 0.0000000000e+00 0.0000000000e+00
     1      1      3
 1  1  1    -1.2859695769e-03
 1  1  2    -1.3142217177e-02
 1  1  3    -1.0768668351e-01
 1  2  1     2.0936201667e-02
 1  2  2     3.8439211499e-03
 1  2  3     1.1144508618e-01
 1  3  1    -1.5484282265e-01
 1  3  2     1.0915069892e-01
 1  3  3    -5.0065499482e-02
 2  1  1     2.0936201667e-02
 2  1  2     3.8439211499e-03
 2  1  3     1.1144508618e-01
 2  2  1     1.1651921801e-01
 2  2  2     6.6214315169e-02
 2  2  3     1.6857531032e-01
 2  3  1    -6.1886159098e-02
 2  3  2    -6.6729968218e-02
 2  3  3     1.8903705877e-01
 3  1  1    -1.5484282265e-01
 3  1  2     1.0915069892e-01
 3  1  3    -5.0065499482e-02
 3  2  1    -6.1886159098e-02
 3  2  2    -6.6729968218e-02
 3  2  3     1.8903705877e-01
 3  3  1     1.9167649319e-01
 3  3  2     2.1278057041e-02
 3  3  3    -1.2438020946e-01

    7
0.0000000000e+00 0.0000000000e+00 0.0000000000e+00
6.5336846097e+00 0.0000000000e+00 0.0000000000e+00
     1      1      1
 1  1  1    -3.8952214414e-01
 1  1  2    -4.4892563402e-02
 1  1  3     0.0000000000e+00
 1  2  1    -2.6269022220e-02
 1  2  2     6.3059995885e-03
 1  2  3     0.0000000000e+00
 1  3  1     0.0000000000e+00
 1  3  2     0.0000000000e+00
 1  3  3    -8.7447815996e-02
 2  1  1    -2.6269022220e-02
 2  1  2     6.3059995885e-03
 2  1  3     0.0000000000e+00
 2  2  1     1.7535259105e-02
 2  2  2     3.4567673530e-02
 2  2  3     0.0000000000e+00
 2  3  1     0.0000000000e+00
 2  3  2     0.0000000000e+00
 2  3  3     1.1705830654e-02
 3  1  1     0.0000000000e+00
 3  1  2     0.0000000000e+00
 3  1  3    -8.7447815996e-02
 3  2  1     0.0000000000e+00
 3  2  2     0.0000000000e+00
 3  2  3     1.1705830654e-02
 3  3  1     8.0250879713e-02
 3  3  2     2.3171772255e-02
 3  3  3     0.0000000000e+00

    8
0.0000000000e+00 0.0000000000e+00 0.0000000000e+00
-6.5336846097e+00 0.0000000000e+00 0.0000000000e+00
     1      1      1
 1  1  1     3.8952214414e-01
 1  1  2    -4.4892563402e-02
 1  1  3     0.0000000000e+00
 1  2  1    -2.6269022220e-02
 1  2  2    -6.3059995885e-03
 1  2  3     0.0000000000e+00
 1  3  1     0.0000000000e+00
 1  3  2     0.0000000000e+00
 1  3  3     8.7447815996e-02
 2  1  1    -2.6269022220e-02
 2  1  2    -6.3059995885e-03
 2  1  3     0.0000000000e+00
 2  2  1    -1.7535259105e-02
 2  2  2     3.4567673530e-02
 2  2  3     0.0000000000e+00
 2  3  1     0.0000000000e+00
 2  3  2     0.0000000000e+00
 2  3  3     1.1705830654e-02
 3  1  1     0.0000000000e+00
 3  1  2     0.0000000000e+00
 3  1  3     8.7447815996e-02
 3  2  1     0.0000000000e+00
 3  2  2     0.0000000000e+00
 3  2  3     1.1705830654e-02
 3  3  1    -8.0250879713e-02
 3  3  2     2.3171772255e-02
 3  3  3     0.0000000000e+00

    9
0.0000000000e+00 0.0000000000e+00 0.0000000000e+00
-6.5336846097e+00 0.0000000000e+00 0.0000000000e+00
     1      1      2
 1  1  1     1.2859695769e-03
 1  1  2    -1.3142217177e-02
 1  1  3     1.0768668351e-01
 1  2  1     2.0936201667e-02
 1  2  2    -3.8439211499e-03
 1  2  3     1.1144508618e-01
 1  3  1     1.5484282265e-01
 1  3  2     1.0915069892e-01
 1  3  3     5.0065499482e-02
 2  1  1     2.0936201667e-02
 2  1  2    -3.8439211499e-03
 2  1  3     1.1144508618e-01
 2  2  1    -1.1651921801e-01
 2  2  2     6.6214315169e-02
 2  2  3    -1.6857531032e-01
 2  3  1    -6.1886159098e-02
 2  3  2     6.6729968218e-02
 2  3  3     1.8903705877e-01
 3  1  1     1.5484282265e-01
 3  1  2     1.0915069892e-01
 3  1  3     5.0065499482e-02
 3  2  1    -6.1886159098e-02
 3  2  2     6.6729968218e-02
 3  2  3     1.8903705877e-01
 3  3  1    -1.9167649319e-01
 3  3  2     2.1278057041e-02
 3  3  3     1.2438020946e-01

   10
0.0000000000e+00 0.0000000000e+00 0.0000000000e+00
-6.5336846097e+00 0.0000000000e+00 0.0000000000e+00
     1      1      3
 1  1  1     1.2859695769e-03
 1  1  2    -1.3142217177e-02
 1  1  3    -1.0768668351e-01
 1  2  1     2.0936201667e-02
 1  2  2    -3.8439211499e-03
 1  2  3    -1.1144508618e-01
 1  3  1    -1.5484282265e-01
 1  3  2    -1.0915069892e-01
 1  3  3     5.0065499482e-02
 2  1  1     2.0936201667e-02
 2  1  2    -3.8439211499e-03
 2  1  3    -1.1144508618e-01
 2  2  1    -1.1651921801e-01
 2  2  2     6.6214315169e-02
 2  2  3     1.6857531032e-01
 2  3  1     6.1886159098e-02
 2  3  2    -6.6729968218e-02
 2  3  3     1.8903705877e-01
 3  1  1    -1.5484282265e-01
 3  1  2    -1.0915069892e-01
 3  1  3     5.0065499482e-02
 3  2  1     6.1886159098e-02
 3  2  2    -6.6729968218e-02
 3  2  3     1.8903705877e-01
 3  3  1    -1.9167649319e-01
 3  3  2     2.1278057041e-02
 3  3  3    -1.2438020946e-01

   11
0.0000000000e+00 0.0000000000e+00 0.0000000000e+00
-3.2668423048e+00 0.0000000000e+00 0.0000000000e+00
     1      1      1
 1  1  1     5.5677241132e+00
 1  1  2     2.3620703616e+00
 1  1  3     0.0000000000e+00
 1  2  1     3.4753203218e-01
 1  2  2     1.8337936015e-01
 1  2  3     0.0000000000e+00
 1  3  1     0.0000000000e+00
 1  3  2     0.0000000000e+00
 1  3  3     6.6667248191e-01
 2  1  1     3.4753203218e-01
 2  1  2     1.8337936015e-01
 2  1  3     0.0000000000e+00
 2  2  1    -3.7681701667e-01
 2  2  2    -1.5295300007e-01
 2  2  3     0.0000000000e+00
 2  3  1     0.0000000000e+00
 2  3  2     0.0000000000e+00
 2  3  3    -1.0807439305e+00
 3  1  1     0.0000000000e+00
 3  1  2     0.0000000000e+00
 3  1  3     6.6667248191e-01
 3  2  1     0.0000000000e+00
 3  2  2     0.0000000000e+00
 3  2  3    -1.0807439305e+00
 3  3  1     1.1615929373e+00
 3  3  2    -6.3567293364e-01
 3  3  3     0.0000000000e+00

   12
0.0000000000e+00 0.0000000000e+00 0.0000000000e+00
-3.2668423048e+00 0.0000000000e+00 0.0000000000e+00
     1      1      2
 1  1  1     7.7975225892e+00
 1  1  2     4.7680810741e+00
 1  1  3     9.9982695228e+00
 1  2  1     3.5918828479e+00
 1  2  2     1.9200958339e+00
 1  2  3     4.6545041723e+00
 1  3  1     9.7827163470e+00
 1  3  2     5.8956930464e+00
 1  3  3     9.4462461105e+00
 2  1  1     3.5918828479e+00
 2  1  2     1.9200958339e+00
 2  1  3     4.6545041723e+00
 2  2  1     3.9573309215e+00
 2  2  2     2.0185867646e+00
 2  2  3     4.6237110492e+00
 2  3  1     5.8956930464e+00
 2  3  2     2.9749564122e+00
 2  3  3     5.4537927347e+00
 3  1  1     9.7827163470e+00
 3  1  2     5.8956930464e+00
 3  1  3     9.4462461105e+00
 3  2  1     5.8956930464e+00
 3  2  2     2.9749564122e+00
 3  2  3     5.4537927347e+00
 3  3  1     9.9060854719e+00
 3  3  2     5.7192811138e+00
 3  3  3     9.8703351308e+00

   13
0.0000000000e+00 0.0000000000e+00 0.0000000000e+00
-3.2668423048e+00 0.0000000000e+00 0.0000000000e+00
     1      1      3
 1  1  1     7.7975225892e+00
 1  1  2     4.7680810741e+00
 1  1  3    -9.9982695228e+00
 1  2  1     3.5918828479e+00
 1  2  2     1.9200958339e+00
 1  2  3    -4.6545041723e+00
 1  3  1    -9.7827163470e+00
 1  3  2    -5.8956930464e+00
 1  3  3     9.4462461105e+00
 2  1  1     3.5918828479e+00
 2  1  2     1.9200958339e+00
 2  1  3    -4.6545041723e+00
 2  2  1     3.9573309215e+00
 2  2  2     2.0185867646e+00
 2  2  3    -4.6237110492e+00
 2  3  1    -5.8956930464e+00
 2  3  2    -2.9749564122e+00
 2  3  3     5.4537927347e+00
 3  1  1    -9.7827163470e+00
 3  1  2    -5.8956930464e+00
 3  1  3     9.4462461105e+00
 3  2  1    -5.8956930464e+00
 3  2  2    -2.9749564122e+00
 3  2  3     5.4537927347e+00
 3  3  1     9.9060854719e+00
 3  3  2     5.7192811138e+00
 3  3  3    -9.8703351308e+00

   14
0.0000000000e+00 0.0000000000e+00 0.0000000000e+00
-1.6334211524e+00 2.8291684262e+00 0.0000000000e+00
     1      1      1
 1  1  1     1.2965052181e-01
 1  1  2    -8.5854460289e-01
 1  1  3     0.0000000000e+00
 1  2  1    -3.3641973159e-01
 1  2  2     2.5773908300e+00
 1  2  3     0.0000000000e+00
 1  3  1     0.0000000000e+00
 1  3  2     0.0000000000e+00
 1  3  3     1.2692879398e+00
 2  1  1    -3.3641973159e-01
 2  1  2     2.5773908300e+00
 2  1  3     0.0000000000e+00
 2  2  1     5.5265127137e-01
 2  2  2    -4.7414714921e+00
 2  2  3     0.0000000000e+00
 2  3  1     0.0000000000e+00
 2  3  2     0.0000000000e+00
 2  3  3    -3.6983340082e-02
 3  1  1     0.0000000000e+00
 3  1  2     0.0000000000e+00
 3  1  3     1.2692879398e+00
 3  2  1     0.0000000000e+00
 3  2  2     0.0000000000e+00
 3  2  3    -3.6983340082e-02
 3  3  1     1.1313053777e+00
 3  3  2    -6.8813252572e-01
 3  3  3     0.0000000000e+00

   15
0.0000000000e+00 0.0000000000e+00 0.0000000000e+00
-1.6334211524e+00 2.8291684262e+00 0.0000000000e+00
     1      1      2
 1  1  1     0.0000000000e+00
 1  1  2    -2.0862171443e+00
 1  1  3     1.9364318124e+00
 1  2  1     2.6617930816e-01
 1  2  2     0.0000000000e+00
 1  2  3     0.0000000000e+00
 1  3  1    -4.2892355525e-01
 1  3  2     0.0000000000e+00
 1  3  3     0.0000000000e+00
 2  1  1     2.6617930816e-01
 2  1  2     0.0000000000e+00
 2  1  3     0.0000000000e+00
 2  2  1     0.0000000000e+00
 2  2  2    -1.1487118533e+01
 2  2  3     1.2685548760e+01
 2  3  1     0.0000000000e+00
 2  3  2     1.3186596314e+01
 2  3  3    -1.0907585469e+01
 3  1  1    -4.2892355525e-01
 3  1  2     0.0000000000e+00
 3  1  3     0.0000000000e+00
 3  2  1     0.0000000000e+00
 3  2  2     1.3186596314e+01
 3  2  3    -1.0907585469e+01
 3  3  1     0.0000000000e+00
 3  3  2    -1.1438562228e+01
 3  3  3     9.8703351308e+00

   16
0.0000000000e+00 0.0000000000e+00 0.0000000000e+00
-1.6334211524e+00 2.8291684262e+00 0.0000000000e+00
     1      1      3
 1  1  1     0.0000000000e+00
 1  1  2    -2.0862171443e+00
 1  1  3    -1.9364318124e+00
 1  2  1     2.6617930816e-01
 1  2  2     0.0000000000e+00
 1  2  3     0.0000000000e+00
 1  3  1     4.2892355525e-01
 1  3  2     0.0000000000e+00
 1  3  3     0.0000000000e+00
 2  1  1     2.6617930816e-01
 2  1  2     0.0000000000e+00
 2  1  3     0.0000000000e+00
 2  2  1     0.0000000000e+00
 2  2  2    -1.1487118533e+01
 2  2  3    -1.2685548760e+01
 2  3  1     0.0000000000e+00
 2  3  2    -1.3186596314e+01
 2  3  3    -1.0907585469e+01
 3  1  1     4.2892355525e-01
 3  1  2     0.0000000000e+00
 3  1  3     0.0000000000e+00
 3  2  1     0.0000000000e+00
 3  2  2    -1.3186596314e+01
 3  2  3    -1.0907585469e+01
 3  3  1     0.0000000000e+00
 3  3  2    -1.1438562228e+01
 3  3  3    -9.8703351308e+00

   17
0.0000000000e+00 0.0000000000e+00 0.0000000000e+00
1.6334211524e+00 2.8291684262e+00 0.0000000000e+00
     1      1      1
 1  1  1    -1.2965052181e-01
 1  1  2    -8.5854460289e-01
 1  1  3     0.0000000000e+00
 1  2  1    -3.3641973159e-01
 1  2  2    -2.5773908300e+00
 1  2  3     0.0000000000e+00
 1  3  1     0.0000000000e+00
 1  3  2     0.0000000000e+00
 1  3  3    -1.2692879398e+00
 2  1  1    -3.3641973159e-01
 2  1  2    -2.5773908300e+00
 2  1  3     0.0000000000e+00
 2  2  1    -5.5265127137e-01
 2  2  2    -4.7414714921e+00
 2  2  3     0.0000000000e+00
 2  3  1     0.0000000000e+00
 2  3  2     0.0000000000e+00
 2  3  3    -3.6983340082e-02
 3  1  1     0.0000000000e+00
 3  1  2     0.0000000000e+00
 3  1  3    -1.2692879398e+00
 3  2  1     0.0000000000e+00
 3  2  2     0.0000000000e+00
 3  2  3    -3.6983340082e-02
 3  3  1    -1.1313053777e+00
 3  3  2    -6.8813252572e-01
 3  3  3     0.0000000000e+00

   18
0.0000000000e+00 0.0000000000e+00 0.0000000000e+00
1.6334211524e+00 2.8291684262e+00 0.0000000000e+00
     1      1      2
 1  1  1     3.1388016323e-01
 1  1  2    -2.0372547098e-01
 1  1  3     2.0741184302e-01
 1  2  1    -1.6036967282e-01
 1  2  2     1.2965820281e-01
 1  2  3     8.2019715779e-02
 1  3  1     3.6177830231e-01
 1  3  2     7.2232368819e-02
 1  3  3     4.0946798071e-02
 2  1  1    -1.6036967282e-01
 2  1  2     1.2965820281e-01
 2  1  3     8.2019715779e-02
 2  2  1     5.4563757604e-02
 2  2  2     4.1644666785e-01
 2  2  3     1.1270363305e-01
 2  3  1     7.2232368819e-02
 2  3  2     2.7837154715e-01
 2  3  3     2.3640644889e-02
 3  1  1     3.6177830231e-01
 3  1  2     7.2232368819e-02
 3  1  3     4.0946798071e-02
 3  2  1     7.2232368819e-02
 3  2  2     2.7837154715e-01
 3  2  3     2.3640644889e-02
 3  3  1    -1.7690924750e-01
 3  3  2    -1.0213860167e-01
 3  3  3     1.9812194110e-02

   19
0.0000000000e+00 0.0000000000e+00 0.0000000000e+00
1.6334211524e+00 2.8291684262e+00 0.0000000000e+00
     1      1      3
 1  1  1     3.1388016323e-01
 1  1  2    -2.0372547098e-01
 1  1  3    -2.0741184302e-01
 1  2  1    -1.6036967282e-01
 1  2  2     1.2965820281e-01
 1  2  3    -8.2019715779e-02
 1  3  1    -3.6177830231e-01
 1  3  2    -7.2232368819e-02
 1  3  3     4.0946798071e-02
 2  1  1    -1.6036967282e-01
 2  1  2     1.2965820281e-01
 2  1  3    -8.2019715779e-02
 2  2  1     5.4563757604e-02
 2  2  2     4.1644666785e-01
 2  2  3    -1.1270363305e-01
 2  3  1    -7.2232368819e-02
 2  3  2    -2.7837154715e-01
 2  3  3     2.3640644889e-02
 3  1  1    -3.6177830231e-01
 3  1  2    -7.2232368819e-02
 3  1  3     4.0946798071e-02
 3  2  1    -7.2232368819e-02
 3  2  2    -2.7837154715e-01
 3  2  3     2.3640644889e-02
 3  3  1    -1.7690924750e-01
 3  3  2    -1.0213860167e-01
 3  3  3    -1.9812194110e-02

   20
0.0000000000e+00 0.0000000000e+00 0.0000000000e+00
4.9002634573e+00 2.8291684262e+00 0.0000000000e+00
     1      1      1
 1  1  1     1.3434248042e-01
 1  1  2     2.2798403118e-01
 1  1  3     0.0000000000e+00
 1  2  1    -1.1293006093e-02
 1  2  2    -9.3365835073e-02
 1  2  3     0.0000000000e+00
 1  3  1     0.0000000000e+00
 1  3  2     0.0000000000e+00
 1  3  3    -1.1999650100e-01
 2  1  1    -1.1293006093e-02
 2  1  2    -9.3365835073e-02
 2  1  3     0.0000000000e+00
 2  2  1     3.2107415057e-01
 2  2  2     3.4950883318e-02
 2  2  3     0.0000000000e+00
 2  3  1     0.0000000000e+00
 2  3  2     0.0000000000e+00
 2  3  3    -6.9280012156e-02
 3  1  1     0.0000000000e+00
 3  1  2     0.0000000000e+00
 3  1  3    -1.1999650100e-01
 3  2  1     0.0000000000e+00
 3  2  2     0.0000000000e+00
 3  2  3    -6.9280012156e-02
 3  3  1    -2.1411578128e-02
 3  3  2    -1.2361980396e-02
 3  3  3     0.0000000000e+00

   21
0.0000000000e+00 0.0000000000e+00 0.0000000000e+00
-4.9002634573e+00 2.8291684262e+00 0.0000000000e+00
     1      1      1
 1  1  1    -1.3434248042e-01
 1  1  2     2.2798403118e-01
 1  1  3     0.0000000000e+00
 1  2  1    -1.1293006093e-02
 1  2  2     9.3365835073e-02
 1  2  3     0.0000000000e+00
 1  3  1     0.0000000000e+00
 1  3  2     0.0000000000e+00
 1  3  3     1.1999650100e-01
 2  1  1    -1.1293006093e-02
 2  1  2     9.3365835073e-02
 2  1  3     0.0000000000e+00
 2  2  1    -3.2107415057e-01
 2  2  2     3.4950883318e-02
 2  2  3     0.0000000000e+00
 2  3  1     0.0000000000e+00
 2  3  2     0.0000000000e+00
 2  3  3    -6.9280012156e-02
 3  1  1     0.0000000000e+00
 3  1  2     0.0000000000e+00
 3  1  3     1.1999650100e-01
 3  2  1     0.0000000000e+00
 3  2  2     0.0000000000e+00
 3  2  3    -6.9280012156e-02
 3  3  1     2.1411578128e-02
 3  3  2    -1.2361980396e-02
 3  3  3     0.0000000000e+00

   22
0.0000000000e+00 0.0000000000e+00 0.0000000000e+00
-4.9002634573e+00 2.8291684262e+00 0.0000000000e+00
     1      1      2
 1  1  1    -3.1388016323e-01
 1  1  2    -2.0372547098e-01
 1  1  3     2.0741184302e-01
 1  2  1    -1.6036967282e-01
 1  2  2    -1.2965820281e-01
 1  2  3    -8.2019715779e-02
 1  3  1     3.6177830231e-01
 1  3  2    -7.2232368819e-02
 1  3  3    -4.0946798071e-02
 2  1  1    -1.6036967282e-01
 2  1  2    -1.2965820281e-01
 2  1  3    -8.2019715779e-02
 2  2  1    -5.4563757604e-02
 2  2  2     4.1644666785e-01
 2  2  3     1.1270363305e-01
 2  3  1    -7.2232368819e-02
 2  3  2     2.7837154715e-01
 2  3  3     2.3640644889e-02
 3  1  1     3.6177830231e-01
 3  1  2    -7.2232368819e-02
 3  1  3    -4.0946798071e-02
 3  2  1    -7.2232368819e-02
 3  2  2     2.7837154715e-01
 3  2  3     2.3640644889e-02
 3  3  1     1.7690924750e-01
 3  3  2    -1.0213860167e-01
 3  3  3     1.9812194110e-02

   23
0.0000000000e+00 0.0000000000e+00 0.0000000000e+00
-4.9002634573e+00 2.8291684262e+00 0.0000000000e+00
     1      1      3
 1  1  1    -3.1388016323e-01
 1  1  2    -2.0372547098e-01
 1  1  3    -2.0741184302e-01
 1  2  1    -1.6036967282e-01
 1  2  2    -1.2965820281e-01
 1  2  3     8.2019715779e-02
 1  3  1    -3.6177830231e-01
 1  3  2     7.2232368819e-02
 1  3  3    -4.0946798071e-02
 2  1  1    -1.6036967282e-01
 2  1  2    -1.2965820281e-01
 2  1  3     8.2019715779e-02
 2  2  1    -5.4563757604e-02
 2  2  2     4.1644666785e-01
 2  2  3    -1.1270363305e-01
 2  3  1     7.2232368819e-02
 2  3  2    -2.7837154715e-01
 2  3  3     2.3640644889e-02
 3  1  1    -3.6177830231e-01
 3  1  2     7.2232368819e-02
 3  1  3    -4.0946798071e-02
 3  2  1     7.2232368819e-02
 3  2  2    -2.7837154715e-01
 3  2  3     2.3640644889e-02
 3  3  1     1.7690924750e-01
 3  3  2    -1.0213860167e-01
 3  3  3    -1.9812194110e-02

   24
0.0000000000e+00 0.0000000000e+00 0.0000000000e+00
-3.2668423048e+00 5.6583368523e+00 0.0000000000e+00
     1      1      1
 1  1  1     3.6027028966e-02
 1  1  2    -1.0272818489e-01
 1  1  3     0.0000000000e+00
 1  2  1    -1.2176477949e-01
 1  2  2     1.4839420046e-01
 1  2  3     0.0000000000e+00
 1  3  1     0.0000000000e+00
 1  3  2     0.0000000000e+00
 1  3  3     3.3586361280e-02
 2  1  1    -1.2176477949e-01
 2  1  2     1.4839420046e-01
 2  1  3     0.0000000000e+00
 2  2  1     1.5890803047e-01
 2  2  2    -2.1425946249e-01
 2  2  3     0.0000000000e+00
 2  3  1     0.0000000000e+00
 2  3  2     0.0000000000e+00
 2  3  3    -8.1584945485e-02
 3  1  1     0.0000000000e+00
 3  1  2     0.0000000000e+00
 3  1  3     3.3586361280e-02
 3  2  1     0.0000000000e+00
 3  2  2     0.0000000000e+00
 3  2  3    -8.1584945485e-02
 3  3  1    -6.0192783280e-02
 3  3  2     5.7913414380e-02
 3  3  3     0.0000000000e+00

   25
0.0000000000e+00 0.0000000000e+00 0.0000000000e+00
-3.2668423048e+00 5.6583368523e+00 0.0000000000e+00
     1      1      2
 1  1  1    -9.5644628459e-02
 1  1  2     6.6253125066e-02
 1  1  3    -1.9602408762e-01
 1  2  1    -4.8365753817e-02
 1  2  2     1.8891091140e-02
 1  2  3    -6.3902409292e-02
 1  3  1     6.8292035734e-02
 1  3  2    -1.1185627922e-01
 1  3  3    -1.3867814541e-01
 2  1  1    -4.8365753817e-02
 2  1  2     1.8891091140e-02
 2  1  3    -6.3902409292e-02
 2  2  1    -7.9337808507e-03
 2  2  2     7.0057464431e-03
 2  2  3     1.3513546081e-01
 2  3  1     5.9180578795e-02
 2  3  2     1.5328075513e-01
 2  3  3    -1.3787652379e-01
 3  1  1     6.8292035734e-02
 3  1  2    -1.1185627922e-01
 3  1  3    -1.3867814541e-01
 3  2  1     5.9180578795e-02
 3  2  2     1.5328075513e-01
 3  2  3    -1.3787652379e-01
 3  3  1    -1.1426558454e-01
 3  3  2     1.5535768389e-01
 3  3  3     1.2438020946e-01

   26
0.0000000000e+00 0.0000000000e+00 0.0000000000e+00
-3.2668423048e+00 5.6583368523e+00 0.0000000000e+00
     1      1      3
 1  1  1    -9.5644628459e-02
 1  1  2     6.6253125066e-02
 1  1  3     1.9602408762e-01
 1  2  1    -4.8365753817e-02
 1  2  2     1.8891091140e-02
 1  2  3     6.3902409292e-02
 1  3  1    -6.8292035734e-02
 1  3  2     1.1185627922e-01
 1  3  3    -1.3867814541e-01
 2  1  1    -4.8365753817e-02
 2  1  2     1.8891091140e-02
 2  1  3     6.3902409292e-02
 2  2  1    -7.9337808507e-03
 2  2  2     7.0057464431e-03
 2  2  3    -1.3513546081e-01
 2  3  1    -5.9180578795e-02
 2  3  2    -1.5328075513e-01
 2  3  3    -1.3787652379e-01
 3  1  1    -6.8292035734e-02
 3  1  2     1.1185627922e-01
 3  1  3    -1.3867814541e-01
 3  2  1    -5.9180578795e-02
 3  2  2    -1.5328075513e-01
 3  2  3    -1.3787652379e-01
 3  3  1    -1.1426558454e-01
 3  3  2     1.5535768389e-01
 3  3  3    -1.2438020946e-01

   27
0.0000000000e+00 0.0000000000e+00 0.0000000000e+00
2.6274303262e-16 5.6583368523e+00 0.0000000000e+00
     1      1      1
 1  1  1     0.0000000000e+00
 1  1  2    -1.0557352786e-01
 1  1  3     0.0000000000e+00
 1  2  1    -2.1848265677e-01
 1  2  2     0.0000000000e+00
 1  2  3     0.0000000000e+00
 1  3  1     0.0000000000e+00
 1  3  2     0.0000000000e+00
 1  3  3     0.0000000000e+00
 2  1  1    -2.1848265677e-01
 2  1  2     0.0000000000e+00
 2  1  3     0.0000000000e+00
 2  2  1     0.0000000000e+00
 2  2  2     2.1420214713e-01
 2  2  3     0.0000000000e+00
 2  3  1     0.0000000000e+00
 2  3  2     0.0000000000e+00
 2  3  3    -3.0208109238e-02
 3  1  1     0.0000000000e+00
 3  1  2     0.0000000000e+00
 3  1  3     0.0000000000e+00
 3  2  1     0.0000000000e+00
 3  2  2     0.0000000000e+00
 3  2  3    -3.0208109238e-02
 3  3  1     0.0000000000e+00
 3  3  2     1.1090379738e-02
 3  3  3     0.0000000000e+00

   28
0.0000000000e+00 0.0000000000e+00 0.0000000000e+00
-2.9236847970e-16 5.6583368523e+00 0.0000000000e+00
     1      1      2
 1  1  1     9.5644628459e-02
 1  1  2     6.6253125066e-02
 1  1  3    -1.9602408762e-01
 1  2  1    -4.8365753817e-02
 1  2  2    -1.8891091140e-02
 1  2  3     6.3902409292e-02
 1  3  1     6.8292035734e-02
 1  3  2     1.1185627922e-01
 1  3  3     1.3867814541e-01
 2  1  1    -4.8365753817e-02
 2  1  2    -1.8891091140e-02
 2  1  3     6.3902409292e-02
 2  2  1     7.9337808507e-03
 2  2  2     7.0057464431e-03
 2  2  3     1.3513546081e-01
 2  3  1    -5.9180578795e-02
 2  3  2     1.5328075513e-01
 2  3  3    -1.3787652379e-01
 3  1  1     6.8292035734e-02
 3  1  2     1.1185627922e-01
 3  1  3     1.3867814541e-01
 3  2  1    -5.9180578795e-02
 3  2  2     1.5328075513e-01
 3  2  3    -1.3787652379e-01
 3  3  1     1.1426558454e-01
 3  3  2     1.5535768389e-01
 3  3  3     1.2438020946e-01

   29
0.0000000000e+00 0.0000000000e+00 0.0000000000e+00
-2.9236847970e-16 5.6583368523e+00 0.0000000000e+00
     1      1      3
 1  1  1     9.5644628459e-02
 1  1  2     6.6253125066e-02
 1  1  3     1.9602408762e-01
 1  2  1    -4.8365753817e-02
 1  2  2    -1.8891091140e-02
 1  2  3    -6.3902409292e-02
 1  3  1    -6.8292035734e-02
 1  3  2    -1.1185627922e-01
 1  3  3     1.3867814541e-01
 2  1  1    -4.8365753817e-02
 2  1  2    -1.8891091140e-02
 2  1  3    -6.3902409292e-02
 2  2  1     7.9337808507e-03
 2  2  2     7.0057464431e-03
 2  2  3    -1.3513546081e-01
 2  3  1     5.9180578795e-02
 2  3  2    -1.5328075513e-01
 2  3  3    -1.3787652379e-01
 3  1  1    -6.8292035734e-02
 3  1  2    -1.1185627922e-01
 3  1  3     1.3867814541e-01
 3  2  1     5.9180578795e-02
 3  2  2    -1.5328075513e-01
 3  2  3    -1.3787652379e-01
 3  3  1     1.1426558454e-01
 3  3  2     1.5535768389e-01
 3  3  3    -1.2438020946e-01

   30
0.0000000000e+00 0.0000000000e+00 0.0000000000e+00
3.2668423048e+00 5.6583368523e+00 0.0000000000e+00
     1      1      1
 1  1  1    -3.6027028966e-02
 1  1  2    -1.0272818489e-01
 1  1  3     0.0000000000e+00
 1  2  1    -1.2176477949e-01
 1  2  2    -1.4839420046e-01
 1  2  3     0.0000000000e+00
 1  3  1     0.0000000000e+00
 1  3  2     0.0000000000e+00
 1  3  3    -3.3586361280e-02
 2  1  1    -1.2176477949e-01
 2  1  2    -1.4839420046e-01
 2  1  3     0.0000000000e+00
 2  2  1    -1.5890803047e-01
 2  2  2    -2.1425946249e-01
 2  2  3     0.0000000000e+00
 2  3  1     0.0000000000e+00
 2  3  2     0.0000000000e+00
 2  3  3    -8.1584945485e-02
 3  1  1     0.0000000000e+00
 3  1  2     0.0000000000e+00
 3  1  3    -3.3586361280e-02
 3  2  1     0.0000000000e+00
 3  2  2     0.0000000000e+00
 3  2  3    -8.1584945485e-02
 3  3  1     6.0192783280e-02
 3  3  2     5.7913414380e-02
 3  3  3     0.0000000000e+00

   31
0.0000000000e+00 0.0000000000e+00 0.0000000000e+00
3.2668423048e+00 -5.6583368523e+00 0.0000000000e+00
     1      1      1
 1  1  1    -3.8743063358e-02
 1  1  2     4.8622037263e-02
 1  1  3     0.0000000000e+00
 1  2  1     4.9035090679e-02
 1  2  2    -1.6005185177e-01
 1  2  3     0.0000000000e+00
 1  3  1     0.0000000000e+00
 1  3  2     0.0000000000e+00
 1  3  3    -5.3861454717e-02
 2  1  1     4.9035090679e-02
 2  1  2    -1.6005185177e-01
 2  1  3     0.0000000000e+00
 2  2  1    -1.3830876224e-01
 2  2  2     2.7869049999e-01
 2  2  3     0.0000000000e+00
 2  3  1     0.0000000000e+00
 2  3  2     0.0000000000e+00
 2  3  3     6.9879114832e-02
 3  1  1     0.0000000000e+00
 3  1  2     0.0000000000e+00
 3  1  3    -5.3861454717e-02
 3  2  1     0.0000000000e+00
 3  2  2     0.0000000000e+00
 3  2  3     6.9879114832e-02
 3  3  1     2.0058096433e-02
 3  3  2    -8.1085186635e-02
 3  3  3     0.0000000000e+00

   32
0.0000000000e+00 0.0000000000e+00 0.0000000000e+00
-3.2668423048e+00 -5.6583368523e+00 0.0000000000e+00
     1      1      1
 1  1  1     3.8743063358e-02
 1  1  2     4.8622037263e-02
 1  1  3     0.0000000000e+00
 1  2  1     4.9035090679e-02
 1  2  2     1.6005185177e-01
 1  2  3     0.0000000000e+00
 1  3  1     0.0000000000e+00
 1  3  2     0.0000000000e+00
 1  3  3     5.3861454717e-02
 2  1  1     4.9035090679e-02
 2  1  2     1.6005185177e-01
 2  1  3     0.0000000000e+00
 2  2  1     1.3830876224e-01
 2  2  2     2.7869049999e-01
 2  2  3     0.0000000000e+00
 2  3  1     0.0000000000e+00
 2  3  2     0.0000000000e+00
 2  3  3     6.9879114832e-02
 3  1  1     0.0000000000e+00
 3  1  2     0.0000000000e+00
 3  1  3     5.3861454717e-02
 3  2  1     0.0000000000e+00
 3  2  2     0.0000000000e+00