 1166

    1
0.0000000000e+00 0.0000000000e+00 0.0000000000e+00
0.0000000000e+00 0.0000000000e+00 0.0000000000e+00
     1      1      1
 1  1  1     0.0000000000e+00
 1  1  2     0.0000000000e+00
 1  1  3     0.0000000000e+00
 1  2  1     0.0000000000e+00
 1  2  2     0.0000000000e+00
 1  2  3    -2.6870563953e+01
 1  3  1     0.0000000000e+00
 1  3  2    -2.6870563953e+01
 1  3  3     0.0000000000e+00
 2  1  1     0.0000000000e+00
 2  1  2     0.0000000000e+00
 2  1  3    -2.6870563953e+01
 2  2  1     0.0000000000e+00
 2  2  2     0.0000000000e+00
 2  2  3     0.0000000000e+00
 2  3  1    -2.6870563953e+01
 2  3  2     0.0000000000e+00
 2  3  3     0.0000000000e+00
 3  1  1     0.0000000000e+00
 3  1  2    -2.6870563953e+01
 3  1  3     0.0000000000e+00
 3  2  1    -2.6870563953e+01
 3  2  2     0.0000000000e+00
 3  2  3     0.0000000000e+00
 3  3  1     0.0000000000e+00
 3  3  2     0.0000000000e+00
 3  3  3     0.0000000000e+00

    2
0.0000000000e+00 0.0000000000e+00 0.0000000000e+00
0.0000000000e+00 0.0000000000e+00 0.0000000000e+00
     1      1      2
 1  1  1     2.4329064614e+00
 1  1  2    -4.6220882152e+00
 1  1  3    -4.6220882152e+00
 1  2  1    -4.8230678968e+00
 1  2  2     4.8230678968e+00
 1  2  3     6.7393776957e+00
 1  3  1    -4.8230678968e+00
 1  3  2     6.7393776957e+00
 1  3  3     4.8230678968e+00
 2  1  1    -4.8230678968e+00
 2  1  2     4.8230678968e+00
 2  1  3     6.7393776957e+00
 2  2  1     4.6220882152e+00
 2  2  2    -2.4329064614e+00
 2  2  3    -4.6220882152e+00
 2  3  1     6.7393776957e+00
 2  3  2    -4.8230678968e+00
 2  3  3    -4.8230678968e+00
 3  1  1    -4.8230678968e+00
 3  1  2     6.7393776957e+00
 3  1  3     4.8230678968e+00
 3  2  1     6.7393776957e+00
 3  2  2    -4.8230678968e+00
 3  2  3    -4.8230678968e+00
 3  3  1     4.6220882152e+00
 3  3  2    -4.6220882152e+00
 3  3  3    -2.4329064614e+00

    3
0.0000000000e+00 0.0000000000e+00 0.0000000000e+00
-2.8434261289e+00 0.0000000000e+00 2.8434261289e+00
     1      1      1
 1  1  1     1.9090441718e-01
 1  1  2    -7.6744031348e-03
 1  1  3    -1.8550165386e-01
 1  2  1    -6.2073799997e-02
 1  2  2     8.0705447583e-02
 1  2  3    -6.6105750341e-02
 1  3  1    -1.7269665393e-01
 1  3  2     5.2092573071e-02
 1  3  3     1.7269665393e-01
 2  1  1    -6.2073799997e-02
 2  1  2     8.0705447583e-02
 2  1  3    -6.6105750341e-02
 2  2  1    -6.4421767727e-02
 2  2  2     1.4910250915e-01
 2  2  3     6.4421767727e-02
 2  3  1    -6.6105750341e-02
 2  3  2    -8.0705447583e-02
 2  3  3    -6.2073799997e-02
 3  1  1    -1.7269665393e-01
 3  1  2     5.2092573071e-02
 3  1  3     1.7269665393e-01
 3  2  1    -6.6105750341e-02
 3  2  2    -8.0705447583e-02
 3  2  3    -6.2073799997e-02
 3  3  1     1.8550165386e-01
 3  3  2    -7.6744031348e-03
 3  3  3    -1.9090441718e-01

    4
0.0000000000e+00 0.0000000000e+00 0.0000000000e+00
2.8434261289e+00 0.0000000000e+00 -2.8434261289e+00
     1      1      1
 1  1  1    -1.9090441718e-01
 1  1  2    -7.6744031348e-03
 1  1  3     1.8550165386e-01
 1  2  1    -6.2073799997e-02
 1  2  2    -8.0705447583e-02
 1  2  3    -6.6105750341e-02
 1  3  1     1.7269665393e-01
 1  3  2     5.2092573071e-02
 1  3  3    -1.7269665393e-01
 2  1  1    -6.2073799997e-02
 2  1  2    -8.0705447583e-02
 2  1  3    -6.6105750341e-02
 2  2  1     6.4421767727e-02
 2  2  2     1.4910250915e-01
 2  2  3    -6.4421767727e-02
 2  3  1    -6.6105750341e-02
 2  3  2     8.0705447583e-02
 2  3  3    -6.2073799997e-02
 3  1  1     1.7269665393e-01
 3  1  2     5.2092573071e-02
 3  1  3    -1.7269665393e-01
 3  2  1    -6.6105750341e-02
 3  2  2     8.0705447583e-02
 3  2  3    -6.2073799997e-02
 3  3  1    -1.8550165386e-01
 3  3  2    -7.6744031348e-03
 3  3  3     1.9090441718e-01

    5
0.0000000000e+00 0.0000000000e+00 0.0000000000e+00
2.8434261289e+00 0.0000000000e+00 -2.8434261289e+00
     1      1      2
 1  1  1    -2.4329064614e+00
 1  1  2    -4.6220882152e+00
 1  1  3     4.6220882152e+00
 1  2  1    -4.8230678968e+00
 1  2  2    -4.8230678968e+00
 1  2  3     6.7393776957e+00
 1  3  1     4.8230678968e+00
 1  3  2     6.7393776957e+00
 1  3  3    -4.8230678968e+00
 2  1  1    -4.8230678968e+00
 2  1  2    -4.8230678968e+00
 2  1  3     6.7393776957e+00
 2  2  1    -4.6220882152e+00
 2  2  2    -2.4329064614e+00
 2  2  3     4.6220882152e+00
 2  3  1     6.7393776957e+00
 2  3  2     4.8230678968e+00
 2  3  3    -4.8230678968e+00
 3  1  1     4.8230678968e+00
 3  1  2     6.7393776957e+00
 3  1  3    -4.8230678968e+00
 3  2  1     6.7393776957e+00
 3  2  2     4.8230678968e+00
 3  2  3    -4.8230678968e+00
 3  3  1    -4.6220882152e+00
 3  3  2    -4.6220882152e+00
 3  3  3     2.4329064614e+00

    6
0.0000000000e+00 0.0000000000e+00 0.0000000000e+00
0.0000000000e+00 2.8434261289e+00 2.8434261289e+00
     1      1      1
 1  1  1    -1.4910250915e-01
 1  1  2     6.4421767727e-02
 1  1  3     6.4421767727e-02
 1  2  1    -8.0705447583e-02
 1  2  2     6.2073799997e-02
 1  2  3    -6.6105750341e-02
 1  3  1    -8.0705447583e-02
 1  3  2    -6.6105750341e-02
 1  3  3     6.2073799997e-02
 2  1  1    -8.0705447583e-02
 2  1  2     6.2073799997e-02
 2  1  3    -6.6105750341e-02
 2  2  1     7.6744031348e-03
 2  2  2    -1.9090441718e-01
 2  2  3    -1.8550165386e-01
 2  3  1     5.2092573071e-02
 2  3  2    -1.7269665393e-01
 2  3  3    -1.7269665393e-01
 3  1  1    -8.0705447583e-02
 3  1  2    -6.6105750341e-02
 3  1  3     6.2073799997e-02
 3  2  1     5.2092573071e-02
 3  2  2    -1.7269665393e-01
 3  2  3    -1.7269665393e-01
 3  3  1     7.6744031348e-03
 3  3  2    -1.8550165386e-01
 3  3  3    -1.9090441718e-01

    7
0.0000000000e+00 0.0000000000e+00 0.0000000000e+00
2.8434261289e+00 2.8434261289e+00 8.2397567263e-16
     1      1      1
 1  1  1    -1.9090441718e-01
 1  1  2    -1.8550165386e-01
 1  1  3     7.6744031348e-03
 1  2  1    -1.7269665393e-01
 1  2  2    -1.7269665393e-01
 1  2  3     5.2092573071e-02
 1  3  1     6.2073799997e-02
 1  3  2    -6.6105750341e-02
 1  3  3    -8.0705447583e-02
 2  1  1    -1.7269665393e-01
 2  1  2    -1.7269665393e-01
 2  1  3     5.2092573071e-02
 2  2  1    -1.8550165386e-01
 2  2  2    -1.9090441718e-01
 2  2  3     7.6744031348e-03
 2  3  1    -6.6105750341e-02
 2  3  2     6.2073799997e-02
 2  3  3    -8.0705447583e-02
 3  1  1     6.2073799997e-02
 3  1  2    -6.6105750341e-02
 3  1  3    -8.0705447583e-02
 3  2  1    -6.6105750341e-02
 3  2  2     6.2073799997e-02
 3  2  3    -8.0705447583e-02
 3  3  1     6.4421767727e-02
 3  3  2     6.4421767727e-02
 3  3  3    -1.4910250915e-01

    8
0.0000000000e+00 0.0000000000e+00 0.0000000000e+00
2.8434261289e+00 2.8434261289e+00 2.6886416032e-16
     1      1      2
 1  1  1     2.8282135878e-02
 1  1  2     8.5151313375e-03
 1  1  3     7.4841657923e-02
 1  2  1    -1.8532114680e-03
 1  2  2     7.8973050074e-03
 1  2  3     3.1884849442e-02
 1  3  1    -4.9180850276e-02
 1  3  2    -7.2031820364e-03
 1  3  3    -4.9180850276e-02
 2  1  1    -1.8532114680e-03
 2  1  2     7.8973050074e-03
 2  1  3     3.1884849442e-02
 2  2  1     1.5454972123e-02
 2  2  2     1.6069395385e-02
 2  2  3     1.5454972123e-02
 2  3  1     3.1884849442e-02
 2  3  2     7.8973050074e-03
 2  3  3    -1.8532114680e-03
 3  1  1    -4.9180850276e-02
 3  1  2    -7.2031820364e-03
 3  1  3    -4.9180850276e-02
 3  2  1     3.1884849442e-02
 3  2  2     7.8973050074e-03
 3  2  3    -1.8532114680e-03
 3  3  1     7.4841657923e-02
 3  3  2     8.5151313375e-03
 3  3  3     2.8282135878e-02

    9
0.0000000000e+00 0.0000000000e+00 0.0000000000e+00
0.0000000000e+00 -2.8434261289e+00 -2.8434261289e+00
     1      1      1
 1  1  1    -1.4910250915e-01
 1  1  2    -6.4421767727e-02
 1  1  3    -6.4421767727e-02
 1  2  1     8.0705447583e-02
 1  2  2     6.2073799997e-02
 1  2  3    -6.6105750341e-02
 1  3  1     8.0705447583e-02
 1  3  2    -6.6105750341e-02
 1  3  3     6.2073799997e-02
 2  1  1     8.0705447583e-02
 2  1  2     6.2073799997e-02
 2  1  3    -6.6105750341e-02
 2  2  1     7.6744031348e-03
 2  2  2     1.9090441718e-01
 2  2  3     1.8550165386e-01
 2  3  1     5.2092573071e-02
 2  3  2     1.7269665393e-01
 2  3  3     1.7269665393e-01
 3  1  1     8.0705447583e-02
 3  1  2    -6.6105750341e-02
 3  1  3     6.2073799997e-02
 3  2  1     5.2092573071e-02
 3  2  2     1.7269665393e-01
 3  2  3     1.7269665393e-01
 3  3  1     7.6744031348e-03
 3  3  2     1.8550165386e-01
 3  3  3     1.9090441718e-01

   10
0.0000000000e+00 0.0000000000e+00 0.0000000000e+00
0.0000000000e+00 -2.8434261289e+00 -2.8434261289e+00
     1      1      2
 1  1  1     2.4329064614e+00
 1  1  2     4.6220882152e+00
 1  1  3     4.6220882152e+00
 1  2  1     4.8230678968e+00
 1  2  2     4.8230678968e+00
 1  2  3     6.7393776957e+00
 1  3  1     4.8230678968e+00
 1  3  2     6.7393776957e+00
 1  3  3     4.8230678968e+00
 2  1  1     4.8230678968e+00
 2  1  2     4.8230678968e+00
 2  1  3     6.7393776957e+00
 2  2  1     4.6220882152e+00
 2  2  2     2.4329064614e+00
 2  2  3     4.6220882152e+00
 2  3  1     6.7393776957e+00
 2  3  2     4.8230678968e+00
 2  3  3     4.8230678968e+00
 3  1  1     4.8230678968e+00
 3  1  2     6.7393776957e+00
 3  1  3     4.8230678968e+00
 3  2  1     6.7393776957e+00
 3  2  2     4.8230678968e+00
 3  2  3     4.8230678968e+00
 3  3  1     4.6220882152e+00
 3  3  2     4.6220882152e+00
 3  3  3     2.4329064614e+00

   11
0.0000000000e+00 0.0000000000e+00 0.0000000000e+00
-2.8434261289e+00 -2.8434261289e+00 5.2034512897e-16
     1      1      1
 1  1  1     1.9090441718e-01
 1  1  2     1.8550165386e-01
 1  1  3     7.6744031348e-03
 1  2  1     1.7269665393e-01
 1  2  2     1.7269665393e-01
 1  2  3     5.2092573071e-02
 1  3  1     6.2073799997e-02
 1  3  2    -6.6105750341e-02
 1  3  3     8.0705447583e-02
 2  1  1     1.7269665393e-01
 2  1  2     1.7269665393e-01
 2  1  3     5.2092573071e-02
 2  2  1     1.8550165386e-01
 2  2  2     1.9090441718e-01
 2  2  3     7.6744031348e-03
 2  3  1    -6.6105750341e-02
 2  3  2     6.2073799997e-02
 2  3  3     8.0705447583e-02
 3  1  1     6.2073799997e-02
 3  1  2    -6.6105750341e-02
 3  1  3     8.0705447583e-02
 3  2  1    -6.6105750341e-02
 3  2  2     6.2073799997e-02
 3  2  3     8.0705447583e-02
 3  3  1    -6.4421767727e-02
 3  3  2    -6.4421767727e-02
 3  3  3    -1.4910250915e-01

   12
0.0000000000e+00 0.0000000000e+00 0.0000000000e+00
-2.8434261289e+00 -2.8434261289e+00 -2.6886416032e-16
     1      1      2
 1  1  1    -1.6069395385e-02
 1  1  2    -1.5454972123e-02
 1  1  3     1.5454972123e-02
 1  2  1    -7.8973050074e-03
 1  2  2     1.8532114680e-03
 1  2  3     3.1884849442e-02
 1  3  1     7.8973050074e-03
 1  3  2     3.1884849442e-02
 1  3  3     1.8532114680e-03
 2  1  1    -7.8973050074e-03
 2  1  2     1.8532114680e-03
 2  1  3     3.1884849442e-02
 2  2  1    -8.5151313375e-03
 2  2  2    -2.8282135878e-02
 2  2  3     7.4841657923e-02
 2  3  1    -7.2031820364e-03
 2  3  2    -4.9180850276e-02
 2  3  3     4.9180850276e-02
 3  1  1     7.8973050074e-03
 3  1  2     3.1884849442e-02
 3  1  3     1.8532114680e-03
 3  2  1    -7.2031820364e-03
 3  2  2    -4.9180850276e-02
 3  2  3     4.9180850276e-02
 3  3  1    -8.5151313375e-03
 3  3  2    -7.4841657923e-02
 3  3  3     2.8282135878e-02

   13
0.0000000000e+00 0.0000000000e+00 0.0000000000e+00
2.8434261289e+00 -2.8434261289e+00 -5.6868522578e+00
     1      1      2
 1  1  1     2.8282135878e-02
 1  1  2    -7.4841657923e-02
 1  1  3    -8.5151313375e-03
 1  2  1     4.9180850276e-02
 1  2  2    -4.9180850276e-02
 1  2  3    -7.2031820364e-03
 1  3  1     1.8532114680e-03
 1  3  2     3.1884849442e-02
 1  3  3     7.8973050074e-03
 2  1  1     4.9180850276e-02
 2  1  2    -4.9180850276e-02
 2  1  3    -7.2031820364e-03
 2  2  1     7.4841657923e-02
 2  2  2    -2.8282135878e-02
 2  2  3    -8.5151313375e-03
 2  3  1     3.1884849442e-02
 2  3  2     1.8532114680e-03
 2  3  3    -7.8973050074e-03
 3  1  1     1.8532114680e-03
 3  1  2     3.1884849442e-02
 3  1  3     7.8973050074e-03
 3  2  1     3.1884849442e-02
 3  2  2     1.8532114680e-03
 3  2  3    -7.8973050074e-03
 3  3  1     1.5454972123e-02
 3  3  2    -1.5454972123e-02
 3  3  3    -1.6069395385e-02

   14
0.0000000000e+00 0.0000000000e+00 0.0000000000e+00
-2.8434261289e+00 2.8434261289e+00 0.0000000000e+00
     1      1      1
 1  1  1     1.9090441718e-01
 1  1  2    -1.8550165386e-01
 1  1  3    -7.6744031348e-03
 1  2  1    -1.7269665393e-01
 1  2  2     1.7269665393e-01
 1  2  3     5.2092573071e-02
 1  3  1    -6.2073799997e-02
 1  3  2    -6.6105750341e-02
 1  3  3     8.0705447583e-02
 2  1  1    -1.7269665393e-01
 2  1  2     1.7269665393e-01
 2  1  3     5.2092573071e-02
 2  2  1     1.8550165386e-01
 2  2  2    -1.9090441718e-01
 2  2  3    -7.6744031348e-03
 2  3  1    -6.6105750341e-02
 2  3  2    -6.2073799997e-02
 2  3  3    -8.0705447583e-02
 3  1  1    -6.2073799997e-02
 3  1  2    -6.6105750341e-02
 3  1  3     8.0705447583e-02
 3  2  1    -6.6105750341e-02
 3  2  2    -6.2073799997e-02
 3  2  3    -8.0705447583e-02
 3  3  1    -6.4421767727e-02
 3  3  2     6.4421767727e-02
 3  3  3     1.4910250915e-01

   15
0.0000000000e+00 0.0000000000e+00 0.0000000000e+00
-8.2397567263e-16 2.8434261289e+00 -2.8434261289e+00
     1      1      1
 1  1  1     1.4910250915e-01
 1  1  2     6.4421767727e-02
 1  1  3    -6.4421767727e-02
 1  2  1    -8.0705447583e-02
 1  2  2    -6.2073799997e-02
 1  2  3    -6.6105750341e-02
 1  3  1     8.0705447583e-02
 1  3  2    -6.6105750341e-02
 1  3  3    -6.2073799997e-02
 2  1  1    -8.0705447583e-02
 2  1  2    -6.2073799997e-02
 2  1  3    -6.6105750341e-02
 2  2  1    -7.6744031348e-03
 2  2  2    -1.9090441718e-01
 2  2  3     1.8550165386e-01
 2  3  1     5.2092573071e-02
 2  3  2     1.7269665393e-01
 2  3  3    -1.7269665393e-01
 3  1  1     8.0705447583e-02
 3  1  2    -6.6105750341e-02
 3  1  3    -6.2073799997e-02
 3  2  1     5.2092573071e-02
 3  2  2     1.7269665393e-01
 3  2  3    -1.7269665393e-01
 3  3  1    -7.6744031348e-03
 3  3  2    -1.8550165386e-01
 3  3  3     1.9090441718e-01

   16
0.0000000000e+00 0.0000000000e+00 0.0000000000e+00
-2.6886416032e-16 2.8434261289e+00 -2.8434261289e+00
     1      1      2
 1  1  1    -2.8282135878e-02
 1  1  2     8.5151313375e-03
 1  1  3    -7.4841657923e-02
 1  2  1    -1.8532114680e-03
 1  2  2    -7.8973050074e-03
 1  2  3     3.1884849442e-02
 1  3  1     4.9180850276e-02
 1  3  2    -7.2031820364e-03
 1  3  3     4.9180850276e-02
 2  1  1    -1.8532114680e-03
 2  1  2    -7.8973050074e-03
 2  1  3     3.1884849442e-02
 2  2  1    -1.5454972123e-02
 2  2  2     1.6069395385e-02
 2  2  3    -1.5454972123e-02
 2  3  1     3.1884849442e-02
 2  3  2    -7.8973050074e-03
 2  3  3    -1.8532114680e-03
 3  1  1     4.9180850276e-02
 3  1  2    -7.2031820364e-03
 3  1  3     4.9180850276e-02
 3  2  1     3.1884849442e-02
 3  2  2    -7.8973050074e-03
 3  2  3    -1.8532114680e-03
 3  3  1    -7.4841657923e-02
 3  3  2     8.5151313375e-03
 3  3  3    -2.8282135878e-02

   17
0.0000000000e+00 0.0000000000e+00 0.0000000000e+00
-8.2397567263e-16 5.6868522578e+00 8.2397567263e-16
     1      1      1
 1  1  1     0.0000000000e+00
 1  1  2    -3.0520952972e-03
 1  1  3     0.0000000000e+00
 1  2  1     4.1928703894e-03
 1  2  2     0.0000000000e+00
 1  2  3     5.0627931326e-03
 1  3  1     0.0000000000e+00
 1  3  2    -6.4941793417e-03
 1  3  3     0.0000000000e+00
 2  1  1     4.1928703894e-03
 2  1  2     0.0000000000e+00
 2  1  3     5.0627931326e-03
 2  2  1     0.0000000000e+00
 2  2  2     8.3560856004e-03
 2  2  3     0.0000000000e+00
 2  3  1     5.0627931326e-03
 2  3  2     0.0000000000e+00
 2  3  3     4.1928703894e-03
 3  1  1     0.0000000000e+00
 3  1  2    -6.4941793417e-03
 3  1  3     0.0000000000e+00
 3  2  1     5.0627931326e-03
 3  2  2     0.0000000000e+00
 3  2  3     4.1928703894e-03
 3  3  1     0.0000000000e+00
 3  3  2    -3.0520952972e-03
 3  3  3     0.0000000000e+00

   18
0.0000000000e+00 0.0000000000e+00 0.0000000000e+00
-2.8434261289e+00 8.2397567263e-16 -2.8434261289e+00
     1      1      1
 1  1  1     1.9090441718e-01
 1  1  2     7.6744031348e-03
 1  1  3     1.8550165386e-01
 1  2  1     6.2073799997e-02
 1  2  2     8.0705447583e-02
 1  2  3    -6.6105750341e-02
 1  3  1     1.7269665393e-01
 1  3  2     5.2092573071e-02
 1  3  3     1.7269665393e-01
 2  1  1     6.2073799997e-02
 2  1  2     8.0705447583e-02
 2  1  3    -6.6105750341e-02
 2  2  1    -6.4421767727e-02
 2  2  2    -1.4910250915e-01
 2  2  3    -6.4421767727e-02
 2  3  1    -6.6105750341e-02
 2  3  2     8.0705447583e-02
 2  3  3     6.2073799997e-02
 3  1  1     1.7269665393e-01
 3  1  2     5.2092573071e-02
 3  1  3     1.7269665393e-01
 3  2  1    -6.6105750341e-02
 3  2  2     8.0705447583e-02
 3  2  3     6.2073799997e-02
 3  3  1     1.8550165386e-01
 3  3  2     7.6744031348e-03
 3  3  3     1.9090441718e-01

   19
0.0000000000e+00 0.0000000000e+00 0.0000000000e+00
-2.8434261289e+00 2.6886416032e-16 -2.8434261289e+00
     1      1      2
 1  1  1    -1.6069395385e-02
 1  1  2     1.5454972123e-02
 1  1  3    -1.5454972123e-02
 1  2  1     7.8973050074e-03
 1  2  2     1.8532114680e-03
 1  2  3     3.1884849442e-02
 1  3  1    -7.8973050074e-03
 1  3  2     3.1884849442e-02
 1  3  3     1.8532114680e-03
 2  1  1     7.8973050074e-03
 2  1  2     1.8532114680e-03
 2  1  3     3.1884849442e-02
 2  2  1    -8.5151313375e-03
 2  2  2     2.8282135878e-02
 2  2  3    -7.4841657923e-02
 2  3  1    -7.2031820364e-03
 2  3  2     4.9180850276e-02
 2  3  3    -4.9180850276e-02
 3  1  1    -7.8973050074e-03
 3  1  2     3.1884849442e-02
 3  1  3     1.8532114680e-03
 3  2  1    -7.2031820364e-03
 3  2  2     4.9180850276e-02
 3  2  3    -4.9180850276e-02
 3  3  1    -8.5151313375e-03
 3  3  2     7.4841657923e-02
 3  3  3    -2.8282135878e-02

   20
0.0000000000e+00 0.0000000000e+00 0.0000000000e+00
-5.6868522578e+00 8.2397567263e-16 5.2034512897e-16
     1      1      1
 1  1  1    -8.3560856004e-03
 1  1  2     0.0000000000e+00
 1  1  3     0.0000000000e+00
 1  2  1     0.0000000000e+00
 1  2  2    -4.1928703894e-03
 1  2  3     5.0627931326e-03
 1  3  1     0.0000000000e+00
 1  3  2     5.0627931326e-03
 1  3  3    -4.1928703894e-03
 2  1  1     0.0000000000e+00
 2  1  2    -4.1928703894e-03
 2  1  3     5.0627931326e-03
 2  2  1     3.0520952972e-03
 2  2  2     0.0000000000e+00
 2  2  3     0.0000000000e+00
 2  3  1    -6.4941793417e-03
 2  3  2     0.0000000000e+00
 2  3  3     0.0000000000e+00
 3  1  1     0.0000000000e+00
 3  1  2     5.0627931326e-03
 3  1  3    -4.1928703894e-03
 3  2  1    -6.4941793417e-03
 3  2  2     0.0000000000e+00
 3  2  3     0.0000000000e+00
 3  3  1     3.0520952972e-03
 3  3  2     0.0000000000e+00
 3  3  3     0.0000000000e+00

   21
0.0000000000e+00 0.0000000000e+00 0.0000000000e+00
-8.2397567263e-16 8.2397567263e-16 -5.6868522578e+00
     1      1      1
 1  1  1     0.0000000000e+00
 1  1  2     0.0000000000e+00
 1  1  3     3.0520952972e-03
 1  2  1     0.0000000000e+00
 1  2  2     0.0000000000e+00
 1  2  3    -6.4941793417e-03
 1  3  1    -4.1928703894e-03
 1  3  2     5.0627931326e-03
 1  3  3     0.0000000000e+00
 2  1  1     0.0000000000e+00
 2  1  2     0.0000000000e+00
 2  1  3    -6.4941793417e-03
 2  2  1     0.0000000000e+00
 2  2  2     0.0000000000e+00
 2  2  3     3.0520952972e-03
 2  3  1     5.0627931326e-03
 2  3  2    -4.1928703894e-03
 2  3  3     0.0000000000e+00
 3  1  1    -4.1928703894e-03
 3  1  2     5.0627931326e-03
 3  1  3     0.0000000000e+00
 3  2  1     5.0627931326e-03
 3  2  2    -4.1928703894e-03
 3  2  3     0.0000000000e+00
 3  3  1     0.0000000000e+00
 3  3  2     0.0000000000e+00
 3  3  3    -8.3560856004e-03

   22
0.0000000000e+00 0.0000000000e+00 0.0000000000e+00
-2.6886416032e-16 2.6886416032e-16 -5.6868522578e+00
     1      1      2
 1  1  1    -2.8282135878e-02
 1  1  2     7.4841657923e-02
 1  1  3    -8.5151313375e-03
 1  2  1    -4.9180850276e-02
 1  2  2     4.9180850276e-02
 1  2  3    -7.2031820364e-03
 1  3  1     1.8532114680e-03
 1  3  2     3.1884849442e-02
 1  3  3    -7.8973050074e-03
 2  1  1    -4.9180850276e-02
 2  1  2     4.9180850276e-02
 2  1  3    -7.2031820364e-03
 2  2  1    -7.4841657923e-02
 2  2  2     2.8282135878e-02
 2  2  3    -8.5151313375e-03
 2  3  1     3.1884849442e-02
 2  3  2     1.8532114680e-03
 2  3  3     7.8973050074e-03
 3  1  1     1.8532114680e-03
 3  1  2     3.1884849442e-02
 3  1  3    -7.8973050074e-03
 3  2  1     3.1884849442e-02
 3  2  2     1.8532114680e-03
 3  2  3     7.8973050074e-03
 3  3  1    -1.5454972123e-02
 3  3  2     1.5454972123e-02
 3  3  3    -1.6069395385e-02

   23
0.0000000000e+00 0.0000000000e+00 0.0000000000e+00
2.8434261289e+00 -2.8434261289e+00 0.0000000000e+00
     1      1      1
 1  1  1    -1.9090441718e-01
 1  1  2     1.8550165386e-01
 1  1  3    -7.6744031348e-03
 1  2  1     1.7269665393e-01
 1  2  2    -1.7269665393e-01
 1  2  3     5.2092573071e-02
 1  3  1    -6.2073799997e-02
 1  3  2    -6.6105750341e-02
 1  3  3    -8.0705447583e-02
 2  1  1     1.7269665393e-01
 2  1  2    -1.7269665393e-01
 2  1  3     5.2092573071e-02
 2  2  1    -1.8550165386e-01
 2  2  2     1.9090441718e-01
 2  2  3    -7.6744031348e-03
 2  3  1    -6.6105750341e-02
 2  3  2    -6.2073799997e-02
 2  3  3     8.0705447583e-02
 3  1  1    -6.2073799997e-02
 3  1  2    -6.6105750341e-02
 3  1  3    -8.0705447583e-02
 3  2  1    -6.6105750341e-02
 3  2  2    -6.2073799997e-02
 3  2  3     8.0705447583e-02
 3  3  1     6.4421767727e-02
 3  3  2    -6.4421767727e-02
 3  3  3     1.4910250915e-01

   24
0.0000000000e+00 0.0000000000e+00 0.0000000000e+00
2.8434261289e+00 -2.8434261289e+00 0.0000000000e+00
     1      1      2
 1  1  1    -2.4329064614e+00
 1  1  2     4.6220882152e+00
 1  1  3    -4.6220882152e+00
 1  2  1     4.8230678968e+00
 1  2  2    -4.8230678968e+00
 1  2  3     6.7393776957e+00
 1  3  1    -4.8230678968e+00
 1  3  2     6.7393776957e+00
 1  3  3    -4.8230678968e+00
 2  1  1     4.8230678968e+00
 2  1  2    -4.8230678968e+00
 2  1  3     6.7393776957e+00
 2  2  1    -4.6220882152e+00
 2  2  2     2.4329064614e+00
 2  2  3    -4.6220882152e+00
 2  3  1     6.7393776957e+00
 2  3  2    -4.8230678968e+00
 2  3  3     4.8230678968e+00
 3  1  1    -4.8230678968e+00
 3  1  2     6.7393776957e+00
 3  1  3    -4.8230678968e+00
 3  2  1     6.7393776957e+00
 3  2  2    -4.8230678968e+00
 3  2  3     4.8230678968e+00
 3  3  1    -4.6220882152e+00
 3  3  2     4.6220882152e+00
 3  3  3    -2.4329064614e+00

   25
0.0000000000e+00 0.0000000000e+00 0.0000000000e+00
-5.2034512897e-16 -2.8434261289e+00 2.8434261289e+00
     1      1      1
 1  1  1     1.4910250915e-01
 1  1  2    -6.4421767727e-02
 1  1  3     6.4421767727e-02
 1  2  1     8.0705447583e-02
 1  2  2    -6.2073799997e-02
 1  2  3    -6.6105750341e-02
 1  3  1    -8.0705447583e-02
 1  3  2    -6.6105750341e-02
 1  3  3    -6.2073799997e-02
 2  1  1     8.0705447583e-02
 2  1  2    -6.2073799997e-02
 2  1  3    -6.6105750341e-02
 2  2  1    -7.6744031348e-03
 2  2  2     1.9090441718e-01
 2  2  3    -1.8550165386e-01
 2  3  1     5.2092573071e-02
 2  3  2    -1.7269665393e-01
 2  3  3     1.7269665393e-01
 3  1  1    -8.0705447583e-02
 3  1  2    -6.6105750341e-02
 3  1  3    -6.2073799997e-02
 3  2  1     5.2092573071e-02
 3  2  2    -1.7269665393e-01
 3  2  3     1.7269665393e-01
 3  3  1    -7.6744031348e-03
 3  3  2     1.8550165386e-01
 3  3  3    -1.9090441718e-01

   26
0.0000000000e+00 0.0000000000e+00 0.0000000000e+00
2.6886416032e-16 -2.8434261289e+00 2.8434261289e+00
     1      1      2
 1  1  1    -2.8282135878e-02
 1  1  2    -7.4841657923e-02
 1  1  3     8.5151313375e-03
 1  2  1     4.9180850276e-02
 1  2  2     4.9180850276e-02
 1  2  3    -7.2031820364e-03
 1  3  1    -1.8532114680e-03
 1  3  2     3.1884849442e-02
 1  3  3    -7.8973050074e-03
 2  1  1     4.9180850276e-02
 2  1  2     4.9180850276e-02
 2  1  3    -7.2031820364e-03
 2  2  1    -7.4841657923e-02
 2  2  2    -2.8282135878e-02
 2  2  3     8.5151313375e-03
 2  3  1     3.1884849442e-02
 2  3  2    -1.8532114680e-03
 2  3  3    -7.8973050074e-03
 3  1  1    -1.8532114680e-03
 3  1  2     3.1884849442e-02
 3  1  3    -7.8973050074e-03
 3  2  1     3.1884849442e-02
 3  2  2    -1.8532114680e-03
 3  2  3    -7.8973050074e-03
 3  3  1    -1.5454972123e-02
 3  3  2    -1.5454972123e-02
 3  3  3     1.6069395385e-02

   27
0.0000000000e+00 0.0000000000e+00 0.0000000000e+00
5.6868522578e+00 -2.8434261289e+00 -2.8434261289e+00
     1      1      2
 1  1  1     1.6069395385e-02
 1  1  2    -1.5454972123e-02
 1  1  3    -1.5454972123e-02
 1  2  1    -7.8973050074e-03
 1  2  2    -1.8532114680e-03
 1  2  3     3.1884849442e-02
 1  3  1    -7.8973050074e-03
 1  3  2     3.1884849442e-02
 1  3  3    -1.8532114680e-03
 2  1  1    -7.8973050074e-03
 2  1  2    -1.8532114680e-03
 2  1  3     3.1884849442e-02
 2  2  1     8.5151313375e-03
 2  2  2    -2.8282135878e-02
 2  2  3    -7.4841657923e-02
 2  3  1    -7.2031820364e-03
 2  3  2     4.9180850276e-02
 2  3  3     4.9180850276e-02
 3  1  1    -7.8973050074e-03
 3  1  2     3.1884849442e-02
 3  1  3    -1.8532114680e-03
 3  2  1    -7.2031820364e-03
 3  2  2     4.9180850276e-02
 3  2  3     4.9180850276e-02
 3  3  1     8.5151313375e-03
 3  3  2    -7.4841657923e-02
 3  3  3    -2.8282135878e-02

   28
0.0000000000e+00 0.0000000000e+00 0.0000000000e+00
2.8434261289e+00 5.2034512897e-16 2.8434261289e+00
     1      1      1
 1  1  1    -1.9090441718e-01
 1  1  2     7.6744031348e-03
 1  1  3    -1.8550165386e-01
 1  2  1     6.2073799997e-02
 1  2  2    -8.0705447583e-02
 1  2  3    -6.6105750341e-02
 1  3  1    -1.7269665393e-01
 1  3  2     5.2092573071e-02
 1  3  3    -1.7269665393e-01
 2  1  1     6.2073799997e-02
 2  1  2    -8.0705447583e-02
 2  1  3    -6.6105750341e-02
 2  2  1     6.4421767727e-02
 2  2  2    -1.4910250915e-01
 2  2  3     6.4421767727e-02
 2  3  1    -6.6105750341e-02
 2  3  2    -8.0705447583e-02
 2  3  3     6.2073799997e-02
 3  1  1    -1.7269665393e-01
 3  1  2     5.2092573071e-02
 3  1  3    -1.7269665393e-01
 3  2  1    -6.6105750341e-02
 3  2  2    -8.0705447583e-02
 3  2  3     6.2073799997e-02
 3  3  1    -1.8550165386e-01
 3  3  2     7.6744031348e-03
 3  3  3    -1.9090441718e-01

   29
0.0000000000e+00 0.0000000000e+00 0.0000000000e+00
2.8434261289e+00 -2.6886416032e-16 2.8434261289e+00
     1      1      2
 1  1  1     2.8282135878e-02
 1  1  2     7.4841657923e-02
 1  1  3     8.5151313375e-03
 1  2  1    -4.9180850276e-02
 1  2  2    -4.9180850276e-02
 1  2  3    -7.2031820364e-03
 1  3  1    -1.8532114680e-03
 1  3  2     3.1884849442e-02
 1  3  3     7.8973050074e-03
 2  1  1    -4.9180850276e-02
 2  1  2    -4.9180850276e-02
 2  1  3    -7.2031820364e-03
 2  2  1     7.4841657923e-02
 2  2  2     2.8282135878e-02
 2  2  3     8.5151313375e-03
 2  3  1     3.1884849442e-02
 2  3  2    -1.8532114680e-03
 2  3  3     7.8973050074e-03
 3  1  1    -1.8532114680e-03
 3  1  2     3.1884849442e-02
 3  1  3     7.8973050074e-03
 3  2  1     3.1884849442e-02
 3  2  2    -1.8532114680e-03
 3  2  3     7.8973050074e-03
 3  3  1     1.5454972123e-02
 3  3  2     1.5454972123e-02
 3  3  3     1.6069395385e-02

   30
0.0000000000e+00 0.0000000000e+00 0.0000000000e+00
-5.2034512897e-16 5.2034512897e-16 5.6868522578e+00
     1      1      1
 1  1  1     0.0000000000e+00
 1  1  2     0.0000000000e+00
 1  1  3    -3.0520952972e-03
 1  2  1     0.0000000000e+00
 1  2  2     0.0000000000e+00
 1  2  3    -6.4941793417e-03
 1  3  1     4.1928703894e-03
 1  3  2     5.0627931326e-03
 1  3  3     0.0000000000e+00
 2  1  1     0.0000000000e+00
 2  1  2     0.0000000000e+00
 2  1  3    -6.4941793417e-03
 2  2  1     0.0000000000e+00
 2  2  2     0.0000000000e+00
 2  2  3    -3.0520952972e-03
 2  3  1     5.0627931326e-03
 2  3  2     4.1928703894e-03
 2  3  3     0.0000000000e+00
 3  1  1     4.1928703894e-03
 3  1  2     5.0627931326e-03
 3  1  3     0.0000000000e+00
 3  2  1     5.0627931326e-03
 3  2  2     4.1928703894e-03
 3  2  3     0.0000000000e+00
 3  3  1     0.0000000000e+00
 3  3  2     0.0000000000e+00
 3  3  3     8.3560856004e-03

   31
0.0000000000e+00 0.0000000000e+00 0.0000000000e+00
5.6868522578e+00 5.2034512897e-16 8.2397567263e-16
     1      1      1
 1  1  1     8.3560856004e-03
 1  1  2     0.0000000000e+00
 1  1  3     0.0000000000e+00
 1  2  1     0.0000000000e+00
 1  2  2     4.1928703894e-03
 1  2  3     5.0627931326e-03
 1  3  1     0.0000000000e+00
 1  3  2     5.0627931326e-03
 1  3  3     4.1928703894e-03
 2  1  1     0.0000000000e+00
 2  1  2     4.1928703894e-03
 2  1  3     5.0627931326e-03
 2  2  1    -3.0520952972e-03
 2  2  2     0.0000000000e+00
 2  2  3     0.0000000000e+00
 2  3  1    -6.4941793417e-03
 2  3  2     0.0000000000e+00
 2  3  3     0.0000000000e+00
 3  1  1     0.0000000000e+00
 3  1  2     5.0627931326e-03
 3  1  3     4.1928703894e-03
 3  2  1    -6.4941793417e-03
 3  2  2     0.0000000000e+00
 3  2  3     0.0000000000e+00
 3  3  1    -3.0520952972e-03
 3  3  2     0.0000000000e+00
 3  3  3     0.0000000000e+00

   32
0.0000000000e+00 0.0000000000e+00 0.0000000000e+00
5.6868522578e+00 -2.6886416032e-16 2.6886416032e-16
     1      1      2
 1  1  1     1.6069395385e-02
 1  1  2     1.5454972123e-02
 1  1  3     1.5454972123e-02
 1  2  1     7.8973050074e-03
 1  2  2    -1.8532114680e-03
 1  2  3     3.1884849442e-02
 1  3  1     7.8973050074e-03
 1  3  2     3.1884849442e-02
 1  3  3    -1.8532114680e-03
 2  1  1     7.8973050074e-03
 2  1  2    -1.8532114680e-03
 2  1  3     3.1884849442e-02
 2  2  1     8.5151313375e-03
 2  2  2     2.8282135878e-02
 2  2  3     7.4841657923e-02
 2  3  1    -7.2031820364e-03
 2  3  2    -4.9180850276e-02
 2  3  3    -4.9180850276e-02
 3  1  1     7.8973050074e-03
 3  1  2     3.1884849442e-02
 3  1  3    -1.8532114680e-03
 3  2  1    -7.2031820364e-03