      4.48158849      -0.00000000       0.00000000
     -0.00000000       4.48158849       0.00000000
      0.00000000       0.00000000       4.71305299
      2.51401276      -0.00000000      -0.00000000
     -0.00000000       2.51401276       0.00000000
     -0.00000000      -0.00000000       2.67804627
      2.51401276      -0.00000000       0.00000000
     -0.00000000       2.51401276      -0.00000000
      0.00000000       0.00000000       2.67804627
     -2.51401276       0.00000000       0.00000000
      0.00000000      -2.51401276      -0.00000000
     -0.00000000       0.00000000      -2.67804627
     -2.51401276       0.00000000       0.00000000
      0.00000000      -2.51401276       0.00000000
      0.00000000       0.00000000      -2.67804627
