
     Program MATDYN v.6.6 starts on 24Mar2022 at 21:16:35 

     This program is part of the open-source Quantum ESPRESSO suite
     for quantum simulation of materials; please cite
         "P. Giannozzi et al., J. Phys.:Condens. Matter 21 395502 (2009);
         "P. Giannozzi et al., J. Phys.:Condens. Matter 29 465901 (2017);
          URL http://www.quantum-espresso.org", 
     in publications or presentations arising from this work. More details at
     http://www.quantum-espresso.org/quote

     Parallel version (MPI), running on     1 processors

     MPI processes distributed on     1 nodes
     Fft bands division:     nmany     =       1
 mass for atomic type   1 not given; uses mass from file espresso.fc                                                                                                                                                                                                                                                     
 mass for atomic type   2 not given; uses mass from file espresso.fc                                                                                                                                                                                                                                                     
Norm of the difference between old and new effective charges:    0.00000000000000000000
Norm of the difference between old and new force-constants:   0.00002464675626505999
 
     MATDYN       :      0.08s CPU      0.11s WALL

 
   This run was terminated on:  21:16:35  24Mar2022            

=------------------------------------------------------------------------------=
   JOB DONE.
=------------------------------------------------------------------------------=
