
     Program PHONON v.6.6 starts on 20Mar2022 at 23:16:17 

     This program is part of the open-source Quantum ESPRESSO suite
     for quantum simulation of materials; please cite
         "P. Giannozzi et al., J. Phys.:Condens. Matter 21 395502 (2009);
         "P. Giannozzi et al., J. Phys.:Condens. Matter 29 465901 (2017);
          URL http://www.quantum-espresso.org", 
     in publications or presentations arising from this work. More details at
     http://www.quantum-espresso.org/quote

     Parallel version (MPI), running on    40 processors

     MPI processes distributed on     1 nodes
     K-points division:     npool     =      40
     Fft bands division:     nmany     =       1

     Reading xml data from directory:

     ./rbbr.save/
     file Rb.pbe-spn-kjpaw_psl.1.0.0.UPF: wavefunction(s)  4S renormalized
     file Br.pbe-n-kjpaw_psl.1.0.0.UPF: wavefunction(s)  4S 4P renormalized

     IMPORTANT: XC functional enforced from input :
     Exchange-correlation= PBE
                           (   1   4   3   4   0   0   0)
     Any further DFT definition will be discarded
     Please, verify this is what you really want

 
     G-vector sticks info
     --------------------
     sticks:   dense  smooth     PW     G-vecs:    dense   smooth      PW
     Sum        1597    1597    451                42087    42087    6423
 

     Check: negative core charge=   -0.000002
     Message from routine divide_et_impera:
     suboptimal parallelization: some nodes have no k-points
     Reading collected, re-writing distributed wavefunctions


     Dynamical matrices for ( 6, 6, 6)  uniform grid of q-points
     (  16 q-points):
       N         xq(1)         xq(2)         xq(3) 
       1   0.000000000   0.000000000   0.000000000
       2  -0.166666667   0.166666667  -0.166666667
       3  -0.333333333   0.333333333  -0.333333333
       4   0.500000000  -0.500000000   0.500000000
       5   0.000000000   0.333333333   0.000000000
       6  -0.166666667   0.500000000  -0.166666667
       7   0.666666667  -0.333333333   0.666666667
       8   0.500000000  -0.166666667   0.500000000
       9   0.333333333   0.000000000   0.333333333
      10   0.000000000   0.666666667   0.000000000
      11   0.833333333  -0.166666667   0.833333333
      12   0.666666667  -0.000000000   0.666666667
      13   0.000000000  -1.000000000   0.000000000
      14   0.666666667  -0.333333333   1.000000000
      15   0.500000000  -0.166666667   0.833333333
      16  -0.333333333  -1.000000000   0.000000000

     Saving dvscf to file. Distribute only q points, not irreducible represetations.

     Calculation of q =    0.0000000   0.0000000   0.0000000

     phonon                                                                     

     bravais-lattice index     =            2
     lattice parameter (alat)  =      13.2560  a.u.
     unit-cell volume          =     582.3356 (a.u.)^3
     number of atoms/cell      =            2
     number of atomic types    =            2
     kinetic-energy cut-off    =      66.0000  Ry
     charge density cut-off    =     264.0000  Ry
     convergence threshold     =      1.0E-22
     beta                      =       0.7000
     number of iterations used =            4
     Exchange-correlation= PBE
                           (   1   4   3   4   0   0   0)


     celldm(1)=   13.25596  celldm(2)=    0.00000  celldm(3)=    0.00000
     celldm(4)=    0.00000  celldm(5)=    0.00000  celldm(6)=    0.00000

     crystal axes: (cart. coord. in units of alat)
               a(1) = ( -0.5000  0.0000  0.5000 )  
               a(2) = (  0.0000  0.5000  0.5000 )  
               a(3) = ( -0.5000  0.5000  0.0000 )  

     reciprocal axes: (cart. coord. in units 2 pi/alat)
               b(1) = ( -1.0000 -1.0000  1.0000 )  
               b(2) = (  1.0000  1.0000  1.0000 )  
               b(3) = ( -1.0000  1.0000 -1.0000 )  


     Atoms inside the unit cell: 

     Cartesian axes

     site n.  atom      mass           positions (alat units)
        1     Rb  85.4678   tau(    1) = (    0.00000    0.00000    0.00000  )
        2     Br  79.9040   tau(    2) = (   -0.50000    0.50000    0.50000  )

     Computing dynamical matrix for 
                    q = (   0.0000000   0.0000000   0.0000000 )
 
     49 Sym.Ops. (with q -> -q+G )


     G cutoff = 1175.0773  (  42087 G-vectors)     FFT grid: ( 50, 50, 50)
     number of k points=    16

     PseudoPot. # 1 for Rb read from file:
     /scratch1/fanchem/RbBr/pp/Rb.pbe-spn-kjpaw_psl.1.0.0.UPF
     MD5 check sum: a11e6fb9d11e64d6427b9eb26aa4a0b1
     Pseudo is Projector augmented-wave + core cor, Zval =  9.0
     Generated using "atomic" code by A. Dal Corso v.6.2.2
     Shape of augmentation charge: PSQ
     Using radial grid of 1219 points,  6 beta functions with: 
                l(1) =   0
                l(2) =   0
                l(3) =   1
                l(4) =   1
                l(5) =   2
                l(6) =   2
     Q(r) pseudized with 0 coefficients 


     PseudoPot. # 2 for Br read from file:
     /scratch1/fanchem/RbBr/pp/Br.pbe-n-kjpaw_psl.1.0.0.UPF
     MD5 check sum: b00de77caabc69c0a6b76eb37264f235
     Pseudo is Projector augmented-wave + core cor, Zval =  7.0
     Generated using "atomic" code by A. Dal Corso v.6.3
     Shape of augmentation charge: PSQ
     Using radial grid of 1213 points,  4 beta functions with: 
                l(1) =   0
                l(2) =   0
                l(3) =   1
                l(4) =   1
     Q(r) pseudized with 0 coefficients 


     Mode symmetry, O_h (m-3m)  point group:


     Electric field:
     Dielectric constant
     Born effective charges in two ways 


     Atomic displacements:
     There are    2 irreducible representations

     Representation     1      3 modes -  To be done

     Representation     2      3 modes -  To be done



     Alpha used in Ewald sum =   2.6000
     PHONON       :      9.64s CPU     14.69s WALL


     Electric Fields Calculation

      iter #   1 total cpu time :    18.5 secs   av.it.:   6.0
      thresh= 1.000E-02 alpha_mix =  0.700 |ddv_scf|^2 =  5.729E-08

      iter #   2 total cpu time :    21.7 secs   av.it.:  11.0
      thresh= 2.393E-05 alpha_mix =  0.700 |ddv_scf|^2 =  7.075E-09

      iter #   3 total cpu time :    26.7 secs   av.it.:  10.0
      thresh= 8.411E-06 alpha_mix =  0.700 |ddv_scf|^2 =  6.125E-10

      iter #   4 total cpu time :    30.0 secs   av.it.:  10.0
      thresh= 2.475E-06 alpha_mix =  0.700 |ddv_scf|^2 =  2.395E-11

      iter #   5 total cpu time :    33.8 secs   av.it.:  10.0
      thresh= 4.894E-07 alpha_mix =  0.700 |ddv_scf|^2 =  2.215E-13

      iter #   6 total cpu time :    38.0 secs   av.it.:  10.0
      thresh= 4.706E-08 alpha_mix =  0.700 |ddv_scf|^2 =  1.501E-15

      iter #   7 total cpu time :    42.1 secs   av.it.:  10.0
      thresh= 3.874E-09 alpha_mix =  0.700 |ddv_scf|^2 =  1.327E-16

      iter #   8 total cpu time :    45.4 secs   av.it.:  10.0
      thresh= 1.152E-09 alpha_mix =  0.700 |ddv_scf|^2 =  7.746E-19

      iter #   9 total cpu time :    49.0 secs   av.it.:  11.0
      thresh= 8.801E-11 alpha_mix =  0.700 |ddv_scf|^2 =  4.469E-20

      iter #  10 total cpu time :    52.1 secs   av.it.:  10.0
      thresh= 2.114E-11 alpha_mix =  0.700 |ddv_scf|^2 =  1.648E-21

      iter #  11 total cpu time :    54.4 secs   av.it.:  10.0
      thresh= 4.059E-12 alpha_mix =  0.700 |ddv_scf|^2 =  6.489E-23

     End of electric fields calculation

          Dielectric constant in cartesian axis 

          (       2.464149161      -0.000000000      -0.000000000 )
          (      -0.000000000       2.464149161       0.000000000 )
          (      -0.000000000      -0.000000000       2.464149161 )

          Effective charges (d Force / dE) in cartesian axis

           atom      1   Rb 
      Ex  (        1.16418       -0.00000       -0.00000 )
      Ey  (       -0.00000        1.16418        0.00000 )
      Ez  (       -0.00000        0.00000        1.16418 )
           atom      2   Br 
      Ex  (       -1.16532        0.00000       -0.00000 )
      Ey  (        0.00000       -1.16532        0.00000 )
      Ez  (       -0.00000        0.00000       -1.16532 )


     Representation #   1 modes #   1   2   3

     Self-consistent Calculation

      iter #   1 total cpu time :    59.9 secs   av.it.:   5.0
      thresh= 1.000E-02 alpha_mix =  0.700 |ddv_scf|^2 =  9.364E-08

      iter #   2 total cpu time :    63.6 secs   av.it.:  10.8
      thresh= 3.060E-05 alpha_mix =  0.700 |ddv_scf|^2 =  1.338E-08

      iter #   3 total cpu time :    67.3 secs   av.it.:  10.7
      thresh= 1.157E-05 alpha_mix =  0.700 |ddv_scf|^2 =  8.658E-11

      iter #   4 total cpu time :    71.5 secs   av.it.:  10.8
      thresh= 9.305E-07 alpha_mix =  0.700 |ddv_scf|^2 =  3.361E-12

      iter #   5 total cpu time :    75.0 secs   av.it.:  10.8
      thresh= 1.833E-07 alpha_mix =  0.700 |ddv_scf|^2 =  2.495E-13

      iter #   6 total cpu time :    79.1 secs   av.it.:  10.1
      thresh= 4.995E-08 alpha_mix =  0.700 |ddv_scf|^2 =  7.607E-16

      iter #   7 total cpu time :    83.8 secs   av.it.:  10.2
      thresh= 2.758E-09 alpha_mix =  0.700 |ddv_scf|^2 =  6.285E-17

      iter #   8 total cpu time :    88.9 secs   av.it.:  10.6
      thresh= 7.928E-10 alpha_mix =  0.700 |ddv_scf|^2 =  7.244E-19

      iter #   9 total cpu time :    92.0 secs   av.it.:  10.0
      thresh= 8.511E-11 alpha_mix =  0.700 |ddv_scf|^2 =  4.263E-20

      iter #  10 total cpu time :    96.8 secs   av.it.:  10.7
      thresh= 2.065E-11 alpha_mix =  0.700 |ddv_scf|^2 =  7.785E-22

      iter #  11 total cpu time :   100.3 secs   av.it.:  10.8
      thresh= 2.790E-12 alpha_mix =  0.700 |ddv_scf|^2 =  6.108E-23

     End of self-consistent calculation

     Convergence has been achieved 


     Representation #   2 modes #   4   5   6

     Self-consistent Calculation

      iter #   1 total cpu time :   105.4 secs   av.it.:   5.7
      thresh= 1.000E-02 alpha_mix =  0.700 |ddv_scf|^2 =  1.731E-07

      iter #   2 total cpu time :   109.3 secs   av.it.:  10.9
      thresh= 4.160E-05 alpha_mix =  0.700 |ddv_scf|^2 =  1.785E-08

      iter #   3 total cpu time :   114.4 secs   av.it.:  10.8
      thresh= 1.336E-05 alpha_mix =  0.700 |ddv_scf|^2 =  5.701E-10

      iter #   4 total cpu time :   118.4 secs   av.it.:  10.8
      thresh= 2.388E-06 alpha_mix =  0.700 |ddv_scf|^2 =  5.572E-11

      iter #   5 total cpu time :   122.6 secs   av.it.:  10.8
      thresh= 7.464E-07 alpha_mix =  0.700 |ddv_scf|^2 =  3.242E-12

      iter #   6 total cpu time :   126.1 secs   av.it.:  10.6
      thresh= 1.800E-07 alpha_mix =  0.700 |ddv_scf|^2 =  1.381E-15

      iter #   7 total cpu time :   129.2 secs   av.it.:  10.5
      thresh= 3.716E-09 alpha_mix =  0.700 |ddv_scf|^2 =  8.495E-17

      iter #   8 total cpu time :   133.0 secs   av.it.:  10.8
      thresh= 9.217E-10 alpha_mix =  0.700 |ddv_scf|^2 =  3.828E-19

      iter #   9 total cpu time :   136.8 secs   av.it.:  10.6
      thresh= 6.187E-11 alpha_mix =  0.700 |ddv_scf|^2 =  1.105E-20

      iter #  10 total cpu time :   140.8 secs   av.it.:  10.9
      thresh= 1.051E-11 alpha_mix =  0.700 |ddv_scf|^2 =  5.940E-22

      iter #  11 total cpu time :   144.1 secs   av.it.:  10.9
      thresh= 2.437E-12 alpha_mix =  0.700 |ddv_scf|^2 =  2.483E-23

     End of self-consistent calculation

     Convergence has been achieved 
 
     Number of q in the star =    1
     List of q in the star:
          1   0.000000000   0.000000000   0.000000000

          Dielectric constant in cartesian axis 

          (       2.464149161      -0.000000000      -0.000000000 )
          (      -0.000000000       2.464149161       0.000000000 )
          (      -0.000000000      -0.000000000       2.464149161 )

          Effective charges (d Force / dE) in cartesian axis

           atom      1   Rb 
      Ex  (        1.16418       -0.00000       -0.00000 )
      Ey  (       -0.00000        1.16418        0.00000 )
      Ez  (       -0.00000        0.00000        1.16418 )
           atom      2   Br 
      Ex  (       -1.16532        0.00000       -0.00000 )
      Ey  (        0.00000       -1.16532        0.00000 )
      Ez  (       -0.00000        0.00000       -1.16532 )

          Effective charges (d P / du) in cartesian axis 

           atom      1   Rb 
      Px  (        1.16418       -0.00000       -0.00000 )
      Py  (        0.00000        1.16418        0.00000 )
      Pz  (       -0.00000        0.00000        1.16418 )
           atom      2   Br 
      Px  (       -1.16532        0.00000       -0.00000 )
      Py  (        0.00000       -1.16532        0.00000 )
      Pz  (       -0.00000        0.00000       -1.16532 )

     Diagonalizing the dynamical matrix

     q = (    0.000000000   0.000000000   0.000000000 ) 

 **************************************************************************
     freq (    1) =       0.135128 [THz] =       4.507384 [cm-1]
     freq (    2) =       0.135128 [THz] =       4.507384 [cm-1]
     freq (    3) =       0.135128 [THz] =       4.507384 [cm-1]
     freq (    4) =       2.291672 [THz] =      76.441954 [cm-1]
     freq (    5) =       2.291672 [THz] =      76.441954 [cm-1]
     freq (    6) =       2.291672 [THz] =      76.441954 [cm-1]
 **************************************************************************

     Mode symmetry, O_h (m-3m)  point group:

     freq (   1-   3) =          4.5  [cm-1]   --> T_1u G_15  G_4- I  
     freq (   4-   6) =         76.4  [cm-1]   --> T_1u G_15  G_4- I  

     Calculation of q =   -0.1666667   0.1666667  -0.1666667

     Subspace diagonalization in iterative solution of the eigenvalue problem:
     a serial algorithm will be used

 
     G-vector sticks info
     --------------------
     sticks:   dense  smooth     PW     G-vecs:    dense   smooth      PW
     Sum        1597    1597    475                42087    42087    6855
 

     Title: 
     phonon                                                                     


     bravais-lattice index     =            2
     lattice parameter (alat)  =      13.2560  a.u.
     unit-cell volume          =     582.3356 (a.u.)^3
     number of atoms/cell      =            2
     number of atomic types    =            2
     number of electrons       =        16.00
     number of Kohn-Sham states=            8
     kinetic-energy cutoff     =      66.0000  Ry
     charge density cutoff     =     264.0000  Ry
     Exchange-correlation= PBE
                           (   1   4   3   4   0   0   0)

     celldm(1)=  13.255958  celldm(2)=   0.000000  celldm(3)=   0.000000
     celldm(4)=   0.000000  celldm(5)=   0.000000  celldm(6)=   0.000000

     crystal axes: (cart. coord. in units of alat)
               a(1) = (  -0.500000   0.000000   0.500000 )  
               a(2) = (   0.000000   0.500000   0.500000 )  
               a(3) = (  -0.500000   0.500000   0.000000 )  

     reciprocal axes: (cart. coord. in units 2 pi/alat)
               b(1) = ( -1.000000 -1.000000  1.000000 )  
               b(2) = (  1.000000  1.000000  1.000000 )  
               b(3) = ( -1.000000  1.000000 -1.000000 )  


     PseudoPot. # 1 for Rb read from file:
     /scratch1/fanchem/RbBr/pp/Rb.pbe-spn-kjpaw_psl.1.0.0.UPF
     MD5 check sum: a11e6fb9d11e64d6427b9eb26aa4a0b1
     Pseudo is Projector augmented-wave + core cor, Zval =  9.0
     Generated using "atomic" code by A. Dal Corso v.6.2.2
     Shape of augmentation charge: PSQ
     Using radial grid of 1219 points,  6 beta functions with: 
                l(1) =   0
                l(2) =   0
                l(3) =   1
                l(4) =   1
                l(5) =   2
                l(6) =   2
     Q(r) pseudized with 0 coefficients 


     PseudoPot. # 2 for Br read from file:
     /scratch1/fanchem/RbBr/pp/Br.pbe-n-kjpaw_psl.1.0.0.UPF
     MD5 check sum: b00de77caabc69c0a6b76eb37264f235
     Pseudo is Projector augmented-wave + core cor, Zval =  7.0
     Generated using "atomic" code by A. Dal Corso v.6.3
     Shape of augmentation charge: PSQ
     Using radial grid of 1213 points,  4 beta functions with: 
                l(1) =   0
                l(2) =   0
                l(3) =   1
                l(4) =   1
     Q(r) pseudized with 0 coefficients 


     atomic species   valence    mass     pseudopotential
        Rb             9.00    85.46780     Rb( 1.00)
        Br             7.00    79.90400     Br( 1.00)

     48 Sym. Ops., with inversion, found



   Cartesian axes

     site n.     atom                  positions (alat units)
         1           Rb  tau(   1) = (   0.0000000   0.0000000   0.0000000  )
         2           Br  tau(   2) = (  -0.5000000   0.5000000   0.5000000  )

     number of k points=   112

     Number of k-points >= 100: set verbosity='high' to print them.

     Dense  grid:    42087 G-vectors     FFT dimensions: (  50,  50,  50)

     Estimated max dynamical RAM per process >      28.64 MB

     Estimated total dynamical RAM >       1.12 GB

     Check: negative core charge=   -0.000002

     The potential is recalculated from file :
     ./_ph0/rbbr.q_2/rbbr.save/charge-density

     Starting wfcs are   12 atomic wfcs
     Checking if some PAW data can be deallocated... 

     Band Structure Calculation
     Davidson diagonalization with overlap

     ethr =  6.25E-11,  avg # of iterations = 10.6

     total cpu time spent up to now is        1.8 secs

     End of band structure calculation

     Number of k-points >= 100: set verbosity='high' to print the bands.

     highest occupied level (ev):     0.8030

     Writing output data file ./_ph0/rbbr.q_2/rbbr.save/

     phonon                                                                     

     bravais-lattice index     =            2
     lattice parameter (alat)  =      13.2560  a.u.
     unit-cell volume          =     582.3356 (a.u.)^3
     number of atoms/cell      =            2
     number of atomic types    =            2
     kinetic-energy cut-off    =      66.0000  Ry
     charge density cut-off    =     264.0000  Ry
     convergence threshold     =      1.0E-22
     beta                      =       0.7000
     number of iterations used =            4
     Exchange-correlation= PBE
                           (   1   4   3   4   0   0   0)


     celldm(1)=   13.25596  celldm(2)=    0.00000  celldm(3)=    0.00000
     celldm(4)=    0.00000  celldm(5)=    0.00000  celldm(6)=    0.00000

     crystal axes: (cart. coord. in units of alat)
               a(1) = ( -0.5000  0.0000  0.5000 )  
               a(2) = (  0.0000  0.5000  0.5000 )  
               a(3) = ( -0.5000  0.5000  0.0000 )  

     reciprocal axes: (cart. coord. in units 2 pi/alat)
               b(1) = ( -1.0000 -1.0000  1.0000 )  
               b(2) = (  1.0000  1.0000  1.0000 )  
               b(3) = ( -1.0000  1.0000 -1.0000 )  


     Atoms inside the unit cell: 

     Cartesian axes

     site n.  atom      mass           positions (alat units)
        1     Rb  85.4678   tau(    1) = (    0.00000    0.00000    0.00000  )
        2     Br  79.9040   tau(    2) = (   -0.50000    0.50000    0.50000  )

     Computing dynamical matrix for 
                    q = (  -0.1666667   0.1666667  -0.1666667 )
 
      6 Sym.Ops. (no q -> -q+G )


     G cutoff = 1175.0773  (  42087 G-vectors)     FFT grid: ( 50, 50, 50)
     number of k points=   112

     PseudoPot. # 1 for Rb read from file:
     /scratch1/fanchem/RbBr/pp/Rb.pbe-spn-kjpaw_psl.1.0.0.UPF
     MD5 check sum: a11e6fb9d11e64d6427b9eb26aa4a0b1
     Pseudo is Projector augmented-wave + core cor, Zval =  9.0
     Generated using "atomic" code by A. Dal Corso v.6.2.2
     Shape of augmentation charge: PSQ
     Using radial grid of 1219 points,  6 beta functions with: 
                l(1) =   0
                l(2) =   0
                l(3) =   1
                l(4) =   1
                l(5) =   2
                l(6) =   2
     Q(r) pseudized with 0 coefficients 


     PseudoPot. # 2 for Br read from file:
     /scratch1/fanchem/RbBr/pp/Br.pbe-n-kjpaw_psl.1.0.0.UPF
     MD5 check sum: b00de77caabc69c0a6b76eb37264f235
     Pseudo is Projector augmented-wave + core cor, Zval =  7.0
     Generated using "atomic" code by A. Dal Corso v.6.3
     Shape of augmentation charge: PSQ
     Using radial grid of 1213 points,  4 beta functions with: 
                l(1) =   0
                l(2) =   0
                l(3) =   1
                l(4) =   1
     Q(r) pseudized with 0 coefficients 


     Mode symmetry, C_3v (3m)   point group:


     Atomic displacements:
     There are    4 irreducible representations

     Representation     1      1 modes -  To be done

     Representation     2      1 modes -  To be done

     Representation     3      2 modes -  To be done

     Representation     4      2 modes -  To be done



     Alpha used in Ewald sum =   2.6000
     PHONON       :   2m 7.38s CPU   2m37.12s WALL



     Representation #   1 mode #   1

     Self-consistent Calculation

      iter #   1 total cpu time :   158.7 secs   av.it.:   6.0
      thresh= 1.000E-02 alpha_mix =  0.700 |ddv_scf|^2 =  1.214E-04

      iter #   2 total cpu time :   160.5 secs   av.it.:   8.2
      thresh= 1.102E-03 alpha_mix =  0.700 |ddv_scf|^2 =  1.362E-04

      iter #   3 total cpu time :   162.3 secs   av.it.:   7.6
      thresh= 1.167E-03 alpha_mix =  0.700 |ddv_scf|^2 =  1.099E-07

      iter #   4 total cpu time :   165.4 secs   av.it.:   9.1
      thresh= 3.315E-05 alpha_mix =  0.700 |ddv_scf|^2 =  1.705E-08

      iter #   5 total cpu time :   168.4 secs   av.it.:   8.7
      thresh= 1.306E-05 alpha_mix =  0.700 |ddv_scf|^2 =  5.784E-10

      iter #   6 total cpu time :   170.7 secs   av.it.:   8.6
      thresh= 2.405E-06 alpha_mix =  0.700 |ddv_scf|^2 =  1.885E-11

      iter #   7 total cpu time :   172.9 secs   av.it.:   9.6
      thresh= 4.341E-07 alpha_mix =  0.700 |ddv_scf|^2 =  3.009E-12

      iter #   8 total cpu time :   175.7 secs   av.it.:   9.2
      thresh= 1.735E-07 alpha_mix =  0.700 |ddv_scf|^2 =  7.248E-14

      iter #   9 total cpu time :   178.6 secs   av.it.:   9.2
      thresh= 2.692E-08 alpha_mix =  0.700 |ddv_scf|^2 =  5.428E-15

      iter #  10 total cpu time :   180.5 secs   av.it.:   8.4
      thresh= 7.367E-09 alpha_mix =  0.700 |ddv_scf|^2 =  3.735E-17

      iter #  11 total cpu time :   182.5 secs   av.it.:   9.0
      thresh= 6.111E-10 alpha_mix =  0.700 |ddv_scf|^2 =  2.515E-18

      iter #  12 total cpu time :   184.3 secs   av.it.:   9.0
      thresh= 1.586E-10 alpha_mix =  0.700 |ddv_scf|^2 =  2.347E-19

      iter #  13 total cpu time :   186.4 secs   av.it.:   8.9
      thresh= 4.845E-11 alpha_mix =  0.700 |ddv_scf|^2 =  4.750E-21

      iter #  14 total cpu time :   188.4 secs   av.it.:   9.8
      thresh= 6.892E-12 alpha_mix =  0.700 |ddv_scf|^2 =  1.264E-21

      iter #  15 total cpu time :   190.1 secs   av.it.:   9.7
      thresh= 3.555E-12 alpha_mix =  0.700 |ddv_scf|^2 =  1.293E-22

      iter #  16 total cpu time :   192.0 secs   av.it.:   9.1
      thresh= 1.137E-12 alpha_mix =  0.700 |ddv_scf|^2 =  1.474E-24

     End of self-consistent calculation

     Convergence has been achieved 


     Representation #   2 mode #   2

     Self-consistent Calculation

      iter #   1 total cpu time :   194.6 secs   av.it.:   5.1
      thresh= 1.000E-02 alpha_mix =  0.700 |ddv_scf|^2 =  1.220E-04

      iter #   2 total cpu time :   197.8 secs   av.it.:   8.0
      thresh= 1.105E-03 alpha_mix =  0.700 |ddv_scf|^2 =  1.837E-04

      iter #   3 total cpu time :   200.1 secs   av.it.:   7.2
      thresh= 1.355E-03 alpha_mix =  0.700 |ddv_scf|^2 =  2.159E-07

      iter #   4 total cpu time :   202.0 secs   av.it.:   8.2
      thresh= 4.647E-05 alpha_mix =  0.700 |ddv_scf|^2 =  1.469E-08

      iter #   5 total cpu time :   203.9 secs   av.it.:   8.0
      thresh= 1.212E-05 alpha_mix =  0.700 |ddv_scf|^2 =  1.935E-09

      iter #   6 total cpu time :   205.7 secs   av.it.:   7.8
      thresh= 4.399E-06 alpha_mix =  0.700 |ddv_scf|^2 =  4.903E-12

      iter #   7 total cpu time :   208.1 secs   av.it.:   9.2
      thresh= 2.214E-07 alpha_mix =  0.700 |ddv_scf|^2 =  6.561E-13

      iter #   8 total cpu time :   210.1 secs   av.it.:   8.6
      thresh= 8.100E-08 alpha_mix =  0.700 |ddv_scf|^2 =  1.181E-13

      iter #   9 total cpu time :   212.2 secs   av.it.:   7.8
      thresh= 3.437E-08 alpha_mix =  0.700 |ddv_scf|^2 =  2.725E-17

      iter #  10 total cpu time :   214.5 secs   av.it.:   9.3
      thresh= 5.220E-10 alpha_mix =  0.700 |ddv_scf|^2 =  2.825E-17

      iter #  11 total cpu time :   216.8 secs   av.it.:   8.4
      thresh= 5.316E-10 alpha_mix =  0.700 |ddv_scf|^2 =  4.747E-18

      iter #  12 total cpu time :   219.5 secs   av.it.:   8.1
      thresh= 2.179E-10 alpha_mix =  0.700 |ddv_scf|^2 =  1.361E-20

      iter #  13 total cpu time :   222.2 secs   av.it.:   9.2
      thresh= 1.167E-11 alpha_mix =  0.700 |ddv_scf|^2 =  3.628E-21

      iter #  14 total cpu time :   224.3 secs   av.it.:   8.9
      thresh= 6.023E-12 alpha_mix =  0.700 |ddv_scf|^2 =  2.406E-22

      iter #  15 total cpu time :   226.7 secs   av.it.:   9.2
      thresh= 1.551E-12 alpha_mix =  0.700 |ddv_scf|^2 =  1.946E-23

     End of self-consistent calculation

     Convergence has been achieved 


     Representation #   3 modes #   3   4

     Self-consistent Calculation

      iter #   1 total cpu time :   231.1 secs   av.it.:   5.0
      thresh= 1.000E-02 alpha_mix =  0.700 |ddv_scf|^2 =  2.178E-07

      iter #   2 total cpu time :   234.2 secs   av.it.:  10.4
      thresh= 4.667E-05 alpha_mix =  0.700 |ddv_scf|^2 =  3.070E-08

      iter #   3 total cpu time :   238.7 secs   av.it.:  10.5
      thresh= 1.752E-05 alpha_mix =  0.700 |ddv_scf|^2 =  1.947E-10

      iter #   4 total cpu time :   243.2 secs   av.it.:  10.3
      thresh= 1.395E-06 alpha_mix =  0.700 |ddv_scf|^2 =  7.352E-12

      iter #   5 total cpu time :   246.9 secs   av.it.:  10.7
      thresh= 2.711E-07 alpha_mix =  0.700 |ddv_scf|^2 =  5.710E-13

      iter #   6 total cpu time :   251.4 secs   av.it.:  10.0
      thresh= 7.557E-08 alpha_mix =  0.700 |ddv_scf|^2 =  2.075E-15

      iter #   7 total cpu time :   255.2 secs   av.it.:  10.0
      thresh= 4.555E-09 alpha_mix =  0.700 |ddv_scf|^2 =  1.546E-16

      iter #   8 total cpu time :   258.7 secs   av.it.:  10.2
      thresh= 1.243E-09 alpha_mix =  0.700 |ddv_scf|^2 =  1.639E-18

      iter #   9 total cpu time :   262.5 secs   av.it.:   9.9
      thresh= 1.280E-10 alpha_mix =  0.700 |ddv_scf|^2 =  4.686E-20

      iter #  10 total cpu time :   265.8 secs   av.it.:  10.6
      thresh= 2.165E-11 alpha_mix =  0.700 |ddv_scf|^2 =  2.593E-21

      iter #  11 total cpu time :   269.9 secs   av.it.:  10.9
      thresh= 5.092E-12 alpha_mix =  0.700 |ddv_scf|^2 =  1.729E-22

      iter #  12 total cpu time :   272.6 secs   av.it.:  10.2
      thresh= 1.315E-12 alpha_mix =  0.700 |ddv_scf|^2 =  5.516E-24

     End of self-consistent calculation

     Convergence has been achieved 


     Representation #   4 modes #   5   6

     Self-consistent Calculation

      iter #   1 total cpu time :   276.3 secs   av.it.:   5.7
      thresh= 1.000E-02 alpha_mix =  0.700 |ddv_scf|^2 =  3.954E-07

      iter #   2 total cpu time :   279.7 secs   av.it.:  10.3
      thresh= 6.288E-05 alpha_mix =  0.700 |ddv_scf|^2 =  3.861E-08

      iter #   3 total cpu time :   283.0 secs   av.it.:  10.7
      thresh= 1.965E-05 alpha_mix =  0.700 |ddv_scf|^2 =  1.245E-09

      iter #   4 total cpu time :   286.1 secs   av.it.:  10.3
      thresh= 3.529E-06 alpha_mix =  0.700 |ddv_scf|^2 =  1.244E-10

      iter #   5 total cpu time :   289.2 secs   av.it.:  10.2
      thresh= 1.115E-06 alpha_mix =  0.700 |ddv_scf|^2 =  7.766E-12

      iter #   6 total cpu time :   292.8 secs   av.it.:  10.2
      thresh= 2.787E-07 alpha_mix =  0.700 |ddv_scf|^2 =  3.389E-15

      iter #   7 total cpu time :   297.3 secs   av.it.:  10.1
      thresh= 5.822E-09 alpha_mix =  0.700 |ddv_scf|^2 =  2.001E-16

      iter #   8 total cpu time :   302.0 secs   av.it.:  10.3
      thresh= 1.414E-09 alpha_mix =  0.700 |ddv_scf|^2 =  1.005E-18

      iter #   9 total cpu time :   305.5 secs   av.it.:  10.1
      thresh= 1.003E-10 alpha_mix =  0.700 |ddv_scf|^2 =  2.036E-20

      iter #  10 total cpu time :   309.3 secs   av.it.:  10.2
      thresh= 1.427E-11 alpha_mix =  0.700 |ddv_scf|^2 =  2.196E-21

      iter #  11 total cpu time :   313.0 secs   av.it.:  10.6
      thresh= 4.686E-12 alpha_mix =  0.700 |ddv_scf|^2 =  1.030E-22

      iter #  12 total cpu time :   315.6 secs   av.it.:  10.1
      thresh= 1.015E-12 alpha_mix =  0.700 |ddv_scf|^2 =  2.089E-24

     End of self-consistent calculation

     Convergence has been achieved 
 
     Number of q in the star =    8
     List of q in the star:
          1  -0.166666667   0.166666667  -0.166666667
          2   0.166666667   0.166666667   0.166666667
          3  -0.166666667  -0.166666667  -0.166666667
          4   0.166666667  -0.166666667   0.166666667
          5   0.166666667  -0.166666667  -0.166666667
          6   0.166666667   0.166666667  -0.166666667
          7  -0.166666667  -0.166666667   0.166666667
          8  -0.166666667   0.166666667   0.166666667

     Diagonalizing the dynamical matrix

     q = (   -0.166666667   0.166666667  -0.166666667 ) 

 **************************************************************************
     freq (    1) =       0.694080 [THz] =      23.152011 [cm-1]
     freq (    2) =       0.694080 [THz] =      23.152011 [cm-1]
     freq (    3) =       0.968763 [THz] =      32.314443 [cm-1]
     freq (    4) =       2.239237 [THz] =      74.692892 [cm-1]
     freq (    5) =       2.239237 [THz] =      74.692892 [cm-1]
     freq (    6) =       3.381161 [THz] =     112.783406 [cm-1]
 **************************************************************************

     Mode symmetry, C_3v (3m)   point group:

     freq (   1-   2) =         23.2  [cm-1]   --> E    L_3           
     freq (   3-   3) =         32.3  [cm-1]   --> A_1  L_1           
     freq (   4-   5) =         74.7  [cm-1]   --> E    L_3           
     freq (   6-   6) =        112.8  [cm-1]   --> A_1  L_1           

     Calculation of q =   -0.3333333   0.3333333  -0.3333333
 
     G-vector sticks info
     --------------------
     sticks:   dense  smooth     PW     G-vecs:    dense   smooth      PW
     Sum        1597    1597    499                42087    42087    7119
 

     Title: 
     phonon                                                                     


     bravais-lattice index     =            2
     lattice parameter (alat)  =      13.2560  a.u.
     unit-cell volume          =     582.3356 (a.u.)^3
     number of atoms/cell      =            2
     number of atomic types    =            2
     number of electrons       =        16.00
     number of Kohn-Sham states=            8
     kinetic-energy cutoff     =      66.0000  Ry
     charge density cutoff     =     264.0000  Ry
     Exchange-correlation= PBE
                           (   1   4   3   4   0   0   0)

     celldm(1)=  13.255958  celldm(2)=   0.000000  celldm(3)=   0.000000
     celldm(4)=   0.000000  celldm(5)=   0.000000  celldm(6)=   0.000000

     crystal axes: (cart. coord. in units of alat)
               a(1) = (  -0.500000   0.000000   0.500000 )  
               a(2) = (   0.000000   0.500000   0.500000 )  
               a(3) = (  -0.500000   0.500000   0.000000 )  

     reciprocal axes: (cart. coord. in units 2 pi/alat)
               b(1) = ( -1.000000 -1.000000  1.000000 )  
               b(2) = (  1.000000  1.000000  1.000000 )  
               b(3) = ( -1.000000  1.000000 -1.000000 )  


     PseudoPot. # 1 for Rb read from file:
     /scratch1/fanchem/RbBr/pp/Rb.pbe-spn-kjpaw_psl.1.0.0.UPF
     MD5 check sum: a11e6fb9d11e64d6427b9eb26aa4a0b1
     Pseudo is Projector augmented-wave + core cor, Zval =  9.0
     Generated using "atomic" code by A. Dal Corso v.6.2.2
     Shape of augmentation charge: PSQ
     Using radial grid of 1219 points,  6 beta functions with: 
                l(1) =   0
                l(2) =   0
                l(3) =   1
                l(4) =   1
                l(5) =   2
                l(6) =   2
     Q(r) pseudized with 0 coefficients 


     PseudoPot. # 2 for Br read from file:
     /scratch1/fanchem/RbBr/pp/Br.pbe-n-kjpaw_psl.1.0.0.UPF
     MD5 check sum: b00de77caabc69c0a6b76eb37264f235
     Pseudo is Projector augmented-wave + core cor, Zval =  7.0
     Generated using "atomic" code by A. Dal Corso v.6.3
     Shape of augmentation charge: PSQ
     Using radial grid of 1213 points,  4 beta functions with: 
                l(1) =   0
                l(2) =   0
                l(3) =   1
                l(4) =   1
     Q(r) pseudized with 0 coefficients 


     atomic species   valence    mass     pseudopotential
        Rb             9.00    85.46780     Rb( 1.00)
        Br             7.00    79.90400     Br( 1.00)

     48 Sym. Ops., with inversion, found



   Cartesian axes

     site n.     atom                  positions (alat units)
         1           Rb  tau(   1) = (   0.0000000   0.0000000   0.0000000  )
         2           Br  tau(   2) = (  -0.5000000   0.5000000   0.5000000  )

     number of k points=   112

     Number of k-points >= 100: set verbosity='high' to print them.

     Dense  grid:    42087 G-vectors     FFT dimensions: (  50,  50,  50)

     Estimated max dynamical RAM per process >      28.67 MB

     Estimated total dynamical RAM >       1.12 GB

     Check: negative core charge=   -0.000002

     The potential is recalculated from file :
     ./_ph0/rbbr.q_3/rbbr.save/charge-density

     Starting wfcs are   12 atomic wfcs
     Checking if some PAW data can be deallocated... 

     Band Structure Calculation
     Davidson diagonalization with overlap

     ethr =  6.25E-11,  avg # of iterations = 10.6

     total cpu time spent up to now is        4.8 secs

     End of band structure calculation

     Number of k-points >= 100: set verbosity='high' to print the bands.

     highest occupied level (ev):     0.8030

     Writing output data file ./_ph0/rbbr.q_3/rbbr.save/

     phonon                                                                     

     bravais-lattice index     =            2
     lattice parameter (alat)  =      13.2560  a.u.
     unit-cell volume          =     582.3356 (a.u.)^3
     number of atoms/cell      =            2
     number of atomic types    =            2
     kinetic-energy cut-off    =      66.0000  Ry
     charge density cut-off    =     264.0000  Ry
     convergence threshold     =      1.0E-22
     beta                      =       0.7000
     number of iterations used =            4
     Exchange-correlation= PBE
                           (   1   4   3   4   0   0   0)


     celldm(1)=   13.25596  celldm(2)=    0.00000  celldm(3)=    0.00000
     celldm(4)=    0.00000  celldm(5)=    0.00000  celldm(6)=    0.00000

     crystal axes: (cart. coord. in units of alat)
               a(1) = ( -0.5000  0.0000  0.5000 )  
               a(2) = (  0.0000  0.5000  0.5000 )  
               a(3) = ( -0.5000  0.5000  0.0000 )  

     reciprocal axes: (cart. coord. in units 2 pi/alat)
               b(1) = ( -1.0000 -1.0000  1.0000 )  
               b(2) = (  1.0000  1.0000  1.0000 )  
               b(3) = ( -1.0000  1.0000 -1.0000 )  


     Atoms inside the unit cell: 

     Cartesian axes

     site n.  atom      mass           positions (alat units)
        1     Rb  85.4678   tau(    1) = (    0.00000    0.00000    0.00000  )
        2     Br  79.9040   tau(    2) = (   -0.50000    0.50000    0.50000  )

     Computing dynamical matrix for 
                    q = (  -0.3333333   0.3333333  -0.3333333 )
 
      6 Sym.Ops. (no q -> -q+G )


     G cutoff = 1175.0773  (  42087 G-vectors)     FFT grid: ( 50, 50, 50)
     number of k points=   112

     PseudoPot. # 1 for Rb read from file:
     /scratch1/fanchem/RbBr/pp/Rb.pbe-spn-kjpaw_psl.1.0.0.UPF
     MD5 check sum: a11e6fb9d11e64d6427b9eb26aa4a0b1
     Pseudo is Projector augmented-wave + core cor, Zval =  9.0
     Generated using "atomic" code by A. Dal Corso v.6.2.2
     Shape of augmentation charge: PSQ
     Using radial grid of 1219 points,  6 beta functions with: 
                l(1) =   0
                l(2) =   0
                l(3) =   1
                l(4) =   1
                l(5) =   2
                l(6) =   2
     Q(r) pseudized with 0 coefficients 


     PseudoPot. # 2 for Br read from file:
     /scratch1/fanchem/RbBr/pp/Br.pbe-n-kjpaw_psl.1.0.0.UPF
     MD5 check sum: b00de77caabc69c0a6b76eb37264f235
     Pseudo is Projector augmented-wave + core cor, Zval =  7.0
     Generated using "atomic" code by A. Dal Corso v.6.3
     Shape of augmentation charge: PSQ
     Using radial grid of 1213 points,  4 beta functions with: 
                l(1) =   0
                l(2) =   0
                l(3) =   1
                l(4) =   1
     Q(r) pseudized with 0 coefficients 


     Mode symmetry, C_3v (3m)   point group:


     Atomic displacements:
     There are    4 irreducible representations

     Representation     1      1 modes -  To be done

     Representation     2      1 modes -  To be done

     Representation     3      2 modes -  To be done

     Representation     4      2 modes -  To be done



     Alpha used in Ewald sum =   2.6000
     PHONON       :   4m16.09s CPU   5m26.61s WALL



     Representation #   1 mode #   1

     Self-consistent Calculation

      iter #   1 total cpu time :   328.2 secs   av.it.:   5.9
      thresh= 1.000E-02 alpha_mix =  0.700 |ddv_scf|^2 =  2.286E-05

      iter #   2 total cpu time :   330.2 secs   av.it.:   9.0
      thresh= 4.781E-04 alpha_mix =  0.700 |ddv_scf|^2 =  1.442E-05

      iter #   3 total cpu time :   333.0 secs   av.it.:   8.7
      thresh= 3.798E-04 alpha_mix =  0.700 |ddv_scf|^2 =  1.117E-07

      iter #   4 total cpu time :   335.2 secs   av.it.:   9.0
      thresh= 3.343E-05 alpha_mix =  0.700 |ddv_scf|^2 =  3.405E-09

      iter #   5 total cpu time :   337.1 secs   av.it.:   9.5
      thresh= 5.835E-06 alpha_mix =  0.700 |ddv_scf|^2 =  4.646E-10

      iter #   6 total cpu time :   339.1 secs   av.it.:   8.9
      thresh= 2.155E-06 alpha_mix =  0.700 |ddv_scf|^2 =  3.410E-11

      iter #   7 total cpu time :   341.9 secs   av.it.:   9.7
      thresh= 5.840E-07 alpha_mix =  0.700 |ddv_scf|^2 =  8.906E-13

      iter #   8 total cpu time :   345.1 secs   av.it.:   9.6
      thresh= 9.437E-08 alpha_mix =  0.700 |ddv_scf|^2 =  3.432E-14

      iter #   9 total cpu time :   348.0 secs   av.it.:   9.8
      thresh= 1.852E-08 alpha_mix =  0.700 |ddv_scf|^2 =  2.654E-15

      iter #  10 total cpu time :   350.3 secs   av.it.:   9.0
      thresh= 5.152E-09 alpha_mix =  0.700 |ddv_scf|^2 =  8.127E-17

      iter #  11 total cpu time :   352.4 secs   av.it.:   9.0
      thresh= 9.015E-10 alpha_mix =  0.700 |ddv_scf|^2 =  1.848E-17

      iter #  12 total cpu time :   355.8 secs   av.it.:   8.2
      thresh= 4.298E-10 alpha_mix =  0.700 |ddv_scf|^2 =  1.749E-18

      iter #  13 total cpu time :   358.1 secs   av.it.:   9.1
      thresh= 1.322E-10 alpha_mix =  0.700 |ddv_scf|^2 =  1.338E-20

      iter #  14 total cpu time :   360.1 secs   av.it.:   8.9
      thresh= 1.157E-11 alpha_mix =  0.700 |ddv_scf|^2 =  5.186E-22

      iter #  15 total cpu time :   362.0 secs   av.it.:   9.2
      thresh= 2.277E-12 alpha_mix =  0.700 |ddv_scf|^2 =  1.038E-22

      iter #  16 total cpu time :   363.5 secs   av.it.:   9.5
      thresh= 1.019E-12 alpha_mix =  0.700 |ddv_scf|^2 =  1.090E-23

     End of self-consistent calculation

     Convergence has been achieved 


     Representation #   2 mode #   2

     Self-consistent Calculation

      iter #   1 total cpu time :   365.6 secs   av.it.:   5.0
      thresh= 1.000E-02 alpha_mix =  0.700 |ddv_scf|^2 =  2.460E-05

      iter #   2 total cpu time :   367.3 secs   av.it.:   9.0
      thresh= 4.960E-04 alpha_mix =  0.700 |ddv_scf|^2 =  2.751E-05

      iter #   3 total cpu time :   369.1 secs   av.it.:   8.1
      thresh= 5.245E-04 alpha_mix =  0.700 |ddv_scf|^2 =  1.660E-08

      iter #   4 total cpu time :   372.7 secs   av.it.:   9.1
      thresh= 1.288E-05 alpha_mix =  0.700 |ddv_scf|^2 =  2.244E-09

      iter #   5 total cpu time :   375.4 secs   av.it.:   8.9
      thresh= 4.737E-06 alpha_mix =  0.700 |ddv_scf|^2 =  1.717E-10

      iter #   6 total cpu time :   378.8 secs   av.it.:   8.9
      thresh= 1.311E-06 alpha_mix =  0.700 |ddv_scf|^2 =  2.369E-12

      iter #   7 total cpu time :   381.0 secs   av.it.:   9.6
      thresh= 1.539E-07 alpha_mix =  0.700 |ddv_scf|^2 =  1.560E-13

      iter #   8 total cpu time :   383.7 secs   av.it.:   9.0
      thresh= 3.949E-08 alpha_mix =  0.700 |ddv_scf|^2 =  7.984E-15

      iter #   9 total cpu time :   388.2 secs   av.it.:   9.0
      thresh= 8.936E-09 alpha_mix =  0.700 |ddv_scf|^2 =  1.672E-16

      iter #  10 total cpu time :   390.4 secs   av.it.:   9.1
      thresh= 1.293E-09 alpha_mix =  0.700 |ddv_scf|^2 =  1.861E-17

      iter #  11 total cpu time :   392.2 secs   av.it.:   9.1
      thresh= 4.313E-10 alpha_mix =  0.700 |ddv_scf|^2 =  2.818E-18

      iter #  12 total cpu time :   394.0 secs   av.it.:   8.9
      thresh= 1.679E-10 alpha_mix =  0.700 |ddv_scf|^2 =  9.279E-20

      iter #  13 total cpu time :   395.7 secs   av.it.:   9.1
      thresh= 3.046E-11 alpha_mix =  0.700 |ddv_scf|^2 =  2.454E-21

      iter #  14 total cpu time :   398.9 secs   av.it.:   9.6
      thresh= 4.954E-12 alpha_mix =  0.700 |ddv_scf|^2 =  1.203E-22

      iter #  15 total cpu time :   400.4 secs   av.it.:  10.0
      thresh= 1.097E-12 alpha_mix =  0.700 |ddv_scf|^2 =  1.409E-23

     End of self-consistent calculation

     Convergence has been achieved 


     Representation #   3 modes #   3   4

     Self-consistent Calculation

      iter #   1 total cpu time :   403.3 secs   av.it.:   5.0
      thresh= 1.000E-02 alpha_mix =  0.700 |ddv_scf|^2 =  2.317E-07

      iter #   2 total cpu time :   407.9 secs   av.it.:  10.4
      thresh= 4.814E-05 alpha_mix =  0.700 |ddv_scf|^2 =  3.171E-08

      iter #   3 total cpu time :   413.0 secs   av.it.:  10.4
      thresh= 1.781E-05 alpha_mix =  0.700 |ddv_scf|^2 =  1.859E-10

      iter #   4 total cpu time :   417.1 secs   av.it.:  10.4
      thresh= 1.363E-06 alpha_mix =  0.700 |ddv_scf|^2 =  5.564E-12

      iter #   5 total cpu time :   420.3 secs   av.it.:  10.8
      thresh= 2.359E-07 alpha_mix =  0.700 |ddv_scf|^2 =  5.420E-13

      iter #   6 total cpu time :   423.7 secs   av.it.:  10.2
      thresh= 7.362E-08 alpha_mix =  0.700 |ddv_scf|^2 =  2.465E-15

      iter #   7 total cpu time :   427.0 secs   av.it.:  10.0
      thresh= 4.965E-09 alpha_mix =  0.700 |ddv_scf|^2 =  1.745E-16

      iter #   8 total cpu time :   430.3 secs   av.it.:  10.1
      thresh= 1.321E-09 alpha_mix =  0.700 |ddv_scf|^2 =  1.605E-18

      iter #   9 total cpu time :   433.5 secs   av.it.:  10.1
      thresh= 1.267E-10 alpha_mix =  0.700 |ddv_scf|^2 =  5.170E-20

      iter #  10 total cpu time :   436.8 secs   av.it.:  10.0
      thresh= 2.274E-11 alpha_mix =  0.700 |ddv_scf|^2 =  2.620E-21

      iter #  11 total cpu time :   441.9 secs   av.it.:  10.8
      thresh= 5.118E-12 alpha_mix =  0.700 |ddv_scf|^2 =  1.901E-22

      iter #  12 total cpu time :   447.4 secs   av.it.:  10.4
      thresh= 1.379E-12 alpha_mix =  0.700 |ddv_scf|^2 =  8.409E-24

     End of self-consistent calculation

     Convergence has been achieved 


     Representation #   4 modes #   5   6

     Self-consistent Calculation

      iter #   1 total cpu time :   451.6 secs   av.it.:   5.8
      thresh= 1.000E-02 alpha_mix =  0.700 |ddv_scf|^2 =  4.056E-07

      iter #   2 total cpu time :   456.2 secs   av.it.:  10.2
      thresh= 6.368E-05 alpha_mix =  0.700 |ddv_scf|^2 =  3.433E-08

      iter #   3 total cpu time :   461.2 secs   av.it.:  10.5
      thresh= 1.853E-05 alpha_mix =  0.700 |ddv_scf|^2 =  1.093E-09

      iter #   4 total cpu time :   464.8 secs   av.it.:  10.3
      thresh= 3.305E-06 alpha_mix =  0.700 |ddv_scf|^2 =  1.035E-10

      iter #   5 total cpu time :   469.0 secs   av.it.:  10.1
      thresh= 1.017E-06 alpha_mix =  0.700 |ddv_scf|^2 =  8.559E-12

      iter #   6 total cpu time :   472.5 secs   av.it.:  10.2
      thresh= 2.926E-07 alpha_mix =  0.700 |ddv_scf|^2 =  4.058E-15

      iter #   7 total cpu time :   477.2 secs   av.it.:  10.1
      thresh= 6.370E-09 alpha_mix =  0.700 |ddv_scf|^2 =  2.186E-16

      iter #   8 total cpu time :   481.7 secs   av.it.:  10.2
      thresh= 1.479E-09 alpha_mix =  0.700 |ddv_scf|^2 =  1.549E-18

      iter #   9 total cpu time :   484.8 secs   av.it.:  10.2
      thresh= 1.245E-10 alpha_mix =  0.700 |ddv_scf|^2 =  2.130E-20

      iter #  10 total cpu time :   487.8 secs   av.it.:  10.2
      thresh= 1.459E-11 alpha_mix =  0.700 |ddv_scf|^2 =  2.312E-21

      iter #  11 total cpu time :   491.6 secs   av.it.:  10.4
      thresh= 4.808E-12 alpha_mix =  0.700 |ddv_scf|^2 =  1.230E-22

      iter #  12 total cpu time :   495.2 secs   av.it.:  10.2
      thresh= 1.109E-12 alpha_mix =  0.700 |ddv_scf|^2 =  5.324E-24

     End of self-consistent calculation

     Convergence has been achieved 
 
     Number of q in the star =    8
     List of q in the star:
          1  -0.333333333   0.333333333  -0.333333333
          2   0.333333333   0.333333333   0.333333333
          3  -0.333333333  -0.333333333  -0.333333333
          4   0.333333333  -0.333333333   0.333333333
          5   0.333333333  -0.333333333  -0.333333333
          6   0.333333333   0.333333333  -0.333333333
          7  -0.333333333  -0.333333333   0.333333333
          8  -0.333333333   0.333333333   0.333333333

     Diagonalizing the dynamical matrix

     q = (   -0.333333333   0.333333333  -0.333333333 ) 

 **************************************************************************
     freq (    1) =       1.287209 [THz] =      42.936657 [cm-1]
     freq (    2) =       1.287209 [THz] =      42.936657 [cm-1]
     freq (    3) =       1.846282 [THz] =      61.585330 [cm-1]
     freq (    4) =       2.070907 [THz] =      69.078037 [cm-1]
     freq (    5) =       2.070907 [THz] =      69.078037 [cm-1]
     freq (    6) =       3.088111 [THz] =     103.008306 [cm-1]
 **************************************************************************

     Mode symmetry, C_3v (3m)   point group:

     freq (   1-   2) =         42.9  [cm-1]   --> E    L_3           
     freq (   3-   3) =         61.6  [cm-1]   --> A_1  L_1           
     freq (   4-   5) =         69.1  [cm-1]   --> E    L_3           
     freq (   6-   6) =        103.0  [cm-1]   --> A_1  L_1           

     Calculation of q =    0.5000000  -0.5000000   0.5000000
     Message from routine divide_et_impera:
     suboptimal parallelization: some nodes have no k-points
 
     G-vector sticks info
     --------------------
     sticks:   dense  smooth     PW     G-vecs:    dense   smooth      PW
     Sum        1597    1597    499                42087    42087    7391
 

     Title: 
     phonon                                                                     


     bravais-lattice index     =            2
     lattice parameter (alat)  =      13.2560  a.u.
     unit-cell volume          =     582.3356 (a.u.)^3
     number of atoms/cell      =            2
     number of atomic types    =            2
     number of electrons       =        16.00
     number of Kohn-Sham states=            8
     kinetic-energy cutoff     =      66.0000  Ry
     charge density cutoff     =     264.0000  Ry
     Exchange-correlation= PBE
                           (   1   4   3   4   0   0   0)

     celldm(1)=  13.255958  celldm(2)=   0.000000  celldm(3)=   0.000000
     celldm(4)=   0.000000  celldm(5)=   0.000000  celldm(6)=   0.000000

     crystal axes: (cart. coord. in units of alat)
               a(1) = (  -0.500000   0.000000   0.500000 )  
               a(2) = (   0.000000   0.500000   0.500000 )  
               a(3) = (  -0.500000   0.500000   0.000000 )  

     reciprocal axes: (cart. coord. in units 2 pi/alat)
               b(1) = ( -1.000000 -1.000000  1.000000 )  
               b(2) = (  1.000000  1.000000  1.000000 )  
               b(3) = ( -1.000000  1.000000 -1.000000 )  


     PseudoPot. # 1 for Rb read from file:
     /scratch1/fanchem/RbBr/pp/Rb.pbe-spn-kjpaw_psl.1.0.0.UPF
     MD5 check sum: a11e6fb9d11e64d6427b9eb26aa4a0b1
     Pseudo is Projector augmented-wave + core cor, Zval =  9.0
     Generated using "atomic" code by A. Dal Corso v.6.2.2
     Shape of augmentation charge: PSQ
     Using radial grid of 1219 points,  6 beta functions with: 
                l(1) =   0
                l(2) =   0
                l(3) =   1
                l(4) =   1
                l(5) =   2
                l(6) =   2
     Q(r) pseudized with 0 coefficients 


     PseudoPot. # 2 for Br read from file:
     /scratch1/fanchem/RbBr/pp/Br.pbe-n-kjpaw_psl.1.0.0.UPF
     MD5 check sum: b00de77caabc69c0a6b76eb37264f235
     Pseudo is Projector augmented-wave + core cor, Zval =  7.0
     Generated using "atomic" code by A. Dal Corso v.6.3
     Shape of augmentation charge: PSQ
     Using radial grid of 1213 points,  4 beta functions with: 
                l(1) =   0
                l(2) =   0
                l(3) =   1
                l(4) =   1
     Q(r) pseudized with 0 coefficients 


     atomic species   valence    mass     pseudopotential
        Rb             9.00    85.46780     Rb( 1.00)
        Br             7.00    79.90400     Br( 1.00)

     48 Sym. Ops., with inversion, found



   Cartesian axes

     site n.     atom                  positions (alat units)
         1           Rb  tau(   1) = (   0.0000000   0.0000000   0.0000000  )
         2           Br  tau(   2) = (  -0.5000000   0.5000000   0.5000000  )

     number of k points=    64
                       cart. coord. in units 2pi/alat
        k(    1) = (   0.0000000   0.0000000   0.0000000), wk =   0.0092593
        k(    2) = (   0.5000000  -0.5000000   0.5000000), wk =   0.0000000
        k(    3) = (  -0.1666667   0.1666667  -0.1666667), wk =   0.0185185
        k(    4) = (   0.3333333  -0.3333333   0.3333333), wk =   0.0000000
        k(    5) = (  -0.3333333   0.3333333  -0.3333333), wk =   0.0185185
        k(    6) = (   0.1666667  -0.1666667   0.1666667), wk =   0.0000000
        k(    7) = (   0.5000000  -0.5000000   0.5000000), wk =   0.0092593
        k(    8) = (   1.0000000  -1.0000000   1.0000000), wk =   0.0000000
        k(    9) = (   0.0000000   0.3333333   0.0000000), wk =   0.0555556
        k(   10) = (   0.5000000  -0.1666667   0.5000000), wk =   0.0000000
        k(   11) = (  -0.1666667   0.5000000  -0.1666667), wk =   0.0555556
        k(   12) = (   0.3333333  -0.0000000   0.3333333), wk =   0.0000000
        k(   13) = (   0.6666667  -0.3333333   0.6666667), wk =   0.0555556
        k(   14) = (   1.1666667  -0.8333333   1.1666667), wk =   0.0000000
        k(   15) = (   0.5000000  -0.1666667   0.5000000), wk =   0.0555556
        k(   16) = (   1.0000000  -0.6666667   1.0000000), wk =   0.0000000
        k(   17) = (   0.3333333   0.0000000   0.3333333), wk =   0.0555556
        k(   18) = (   0.8333333  -0.5000000   0.8333333), wk =   0.0000000
        k(   19) = (   0.0000000   0.6666667   0.0000000), wk =   0.0555556
        k(   20) = (   0.5000000   0.1666667   0.5000000), wk =   0.0000000
        k(   21) = (   0.8333333  -0.1666667   0.8333333), wk =   0.0555556
        k(   22) = (   1.3333333  -0.6666667   1.3333333), wk =   0.0000000
        k(   23) = (   0.6666667  -0.0000000   0.6666667), wk =   0.0555556
        k(   24) = (   1.1666667  -0.5000000   1.1666667), wk =   0.0000000
        k(   25) = (   0.0000000  -1.0000000   0.0000000), wk =   0.0277778
        k(   26) = (   0.5000000  -1.5000000   0.5000000), wk =   0.0000000
        k(   27) = (   0.6666667  -0.3333333   1.0000000), wk =   0.1111111
        k(   28) = (   1.1666667  -0.8333333   1.5000000), wk =   0.0000000
        k(   29) = (   0.5000000  -0.1666667   0.8333333), wk =   0.0555556
        k(   30) = (   1.0000000  -0.6666667   1.3333333), wk =   0.0000000
        k(   31) = (  -0.3333333  -1.0000000   0.0000000), wk =   0.1111111
        k(   32) = (   0.1666667  -1.5000000   0.5000000), wk =   0.0000000
        k(   33) = (  -0.1666667  -0.1666667  -0.1666667), wk =   0.0555556
        k(   34) = (   0.3333333  -0.6666667   0.3333333), wk =   0.0000000
        k(   35) = (  -0.3333333  -0.3333333  -0.3333333), wk =   0.0555556
        k(   36) = (   0.1666667  -0.8333333   0.1666667), wk =   0.0000000
        k(   37) = (   0.5000000   0.5000000   0.5000000), wk =   0.0277778
        k(   38) = (   1.0000000   0.0000000   1.0000000), wk =   0.0000000
        k(   39) = (  -0.1666667  -0.5000000  -0.1666667), wk =   0.0555556
        k(   40) = (   0.3333333  -1.0000000   0.3333333), wk =   0.0000000
        k(   41) = (   0.1666667  -0.5000000  -0.1666667), wk =   0.1111111
        k(   42) = (   0.6666667  -1.0000000   0.3333333), wk =   0.0000000
        k(   43) = (   0.6666667   0.3333333   0.6666667), wk =   0.0555556
        k(   44) = (   1.1666667  -0.1666667   1.1666667), wk =   0.0000000
        k(   45) = (  -0.6666667   0.3333333   0.6666667), wk =   0.1111111
        k(   46) = (  -0.1666667  -0.1666667   1.1666667), wk =   0.0000000
        k(   47) = (   0.5000000   0.1666667   0.5000000), wk =   0.0555556
        k(   48) = (   1.0000000  -0.3333333   1.0000000), wk =   0.0000000
        k(   49) = (  -0.5000000   0.1666667   0.5000000), wk =   0.1111111
        k(   50) = (   0.0000000  -0.3333333   1.0000000), wk =   0.0000000
        k(   51) = (  -0.3333333  -0.0000000   0.3333333), wk =   0.0555556
        k(   52) = (   0.1666667  -0.5000000   0.8333333), wk =   0.0000000
        k(   53) = (   0.8333333   0.1666667   0.8333333), wk =   0.0555556
        k(   54) = (   1.3333333  -0.3333333   1.3333333), wk =   0.0000000
        k(   55) = (  -0.8333333   0.1666667   0.8333333), wk =   0.1111111
        k(   56) = (  -0.3333333  -0.3333333   1.3333333), wk =   0.0000000
        k(   57) = (  -0.6666667   0.0000000   0.6666667), wk =   0.0555556
        k(   58) = (  -0.1666667  -0.5000000   1.1666667), wk =   0.0000000
        k(   59) = (   1.0000000   0.3333333   0.6666667), wk =   0.1111111
        k(   60) = (   1.5000000  -0.1666667   1.1666667), wk =   0.0000000
        k(   61) = (   0.8333333   0.1666667   0.5000000), wk =   0.1111111
        k(   62) = (   1.3333333  -0.3333333   1.0000000), wk =   0.0000000
        k(   63) = (  -0.8333333   0.1666667   0.5000000), wk =   0.0555556
        k(   64) = (  -0.3333333  -0.3333333   1.0000000), wk =   0.0000000

     Dense  grid:    42087 G-vectors     FFT dimensions: (  50,  50,  50)

     Estimated max dynamical RAM per process >      28.69 MB

     Estimated total dynamical RAM >       1.12 GB

     Check: negative core charge=   -0.000002

     The potential is recalculated from file :
     ./_ph0/rbbr.q_4/rbbr.save/charge-density

     Starting wfcs are   12 atomic wfcs
     Checking if some PAW data can be deallocated... 

     Band Structure Calculation
     Davidson diagonalization with overlap

     ethr =  6.25E-11,  avg # of iterations = 10.5

     total cpu time spent up to now is        7.0 secs

     End of band structure calculation

          k = 0.0000 0.0000 0.0000 (  5209 PWs)   bands (ev):

   -23.7697 -11.3135  -7.8363  -7.8363  -7.8363   0.8030   0.8030   0.8030

          k = 0.5000-0.5000 0.5000 (  5252 PWs)   bands (ev):

   -23.7633 -11.3421  -7.8434  -7.8434  -7.8059  -0.0711   0.5067   0.5067

          k =-0.1667 0.1667-0.1667 (  5258 PWs)   bands (ev):

   -23.7681 -11.3208  -7.8381  -7.8381  -7.8287   0.5360   0.7246   0.7246

          k = 0.3333-0.3333 0.3333 (  5303 PWs)   bands (ev):

   -23.7650 -11.3350  -7.8417  -7.8417  -7.8135   0.1091   0.5767   0.5767

          k =-0.3333 0.3333-0.3333 (  5303 PWs)   bands (ev):

   -23.7650 -11.3350  -7.8417  -7.8417  -7.8135   0.1091   0.5767   0.5767

          k = 0.1667-0.1667 0.1667 (  5258 PWs)   bands (ev):

   -23.7681 -11.3208  -7.8381  -7.8381  -7.8287   0.5360   0.7246   0.7246

          k = 0.5000-0.5000 0.5000 (  5252 PWs)   bands (ev):

   -23.7633 -11.3421  -7.8434  -7.8434  -7.8059  -0.0711   0.5067   0.5067

          k = 1.0000-1.0000 1.0000 (  5209 PWs)   bands (ev):

   -23.7697 -11.3135  -7.8363  -7.8363  -7.8363   0.8030   0.8030   0.8030

          k = 0.0000 0.3333 0.0000 (  5269 PWs)   bands (ev):

   -23.7676 -11.3181  -7.8498  -7.8498  -7.8205   0.4418   0.7525   0.7525

          k = 0.5000-0.1667 0.5000 (  5281 PWs)   bands (ev):

   -23.7634 -11.3268  -7.8823  -7.8437  -7.8174   0.0743   0.5163   0.5521

          k =-0.1667 0.5000-0.1667 (  5274 PWs)   bands (ev):

   -23.7650 -11.3198  -7.8584  -7.8565  -7.8321   0.2155   0.6154   0.6580

          k = 0.3333-0.0000 0.3333 (  5270 PWs)   bands (ev):

   -23.7660 -11.3252  -7.8651  -7.8351  -7.8160   0.2744   0.6044   0.6889

          k = 0.6667-0.3333 0.6667 (  5265 PWs)   bands (ev):

   -23.7629 -11.3241  -7.8720  -7.8554  -7.8317   0.0702   0.4915   0.5421

          k = 1.1667-0.8333 1.1667 (  5258 PWs)   bands (ev):

   -23.7681 -11.3208  -7.8381  -7.8381  -7.8287   0.5360   0.7246   0.7246

          k = 0.5000-0.1667 0.5000 (  5281 PWs)   bands (ev):

   -23.7634 -11.3268  -7.8823  -7.8437  -7.8174   0.0743   0.5163   0.5521

          k = 1.0000-0.6667 1.0000 (  5269 PWs)   bands (ev):

   -23.7676 -11.3181  -7.8498  -7.8498  -7.8205   0.4418   0.7525   0.7525

          k = 0.3333 0.0000 0.3333 (  5270 PWs)   bands (ev):

   -23.7660 -11.3252  -7.8651  -7.8351  -7.8160   0.2744   0.6044   0.6889

          k = 0.8333-0.5000 0.8333 (  5274 PWs)   bands (ev):

   -23.7650 -11.3198  -7.8584  -7.8565  -7.8321   0.2155   0.6154   0.6580

          k = 0.0000 0.6667 0.0000 (  5257 PWs)   bands (ev):

   -23.7635 -11.2961  -7.8892  -7.8771  -7.8771   0.2478   0.6767   0.6767

          k = 0.5000 0.1667 0.5000 (  5281 PWs)   bands (ev):

   -23.7634 -11.3268  -7.8823  -7.8437  -7.8174   0.0743   0.5163   0.5521

          k = 0.8333-0.1667 0.8333 (  5274 PWs)   bands (ev):

   -23.7620 -11.2873  -7.9384  -7.8791  -7.8728   0.3107   0.5325   0.6135

          k = 1.3333-0.6667 1.3333 (  5303 PWs)   bands (ev):

   -23.7650 -11.3350  -7.8417  -7.8417  -7.8135   0.1091   0.5767   0.5767

          k = 0.6667-0.0000 0.6667 (  5256 PWs)   bands (ev):

   -23.7619 -11.3028  -7.9339  -7.8625  -7.8442   0.2341   0.4587   0.5345

          k = 1.1667-0.5000 1.1667 (  5274 PWs)   bands (ev):

   -23.7650 -11.3198  -7.8584  -7.8565  -7.8321   0.2155   0.6154   0.6580

          k = 0.0000-1.0000 0.0000 (  5290 PWs)   bands (ev):

   -23.7615 -11.2686  -7.9737  -7.8909  -7.8909   0.3515   0.6495   0.6495

          k = 0.5000-1.5000 0.5000 (  5252 PWs)   bands (ev):

   -23.7633 -11.3421  -7.8434  -7.8434  -7.8059  -0.0711   0.5067   0.5067

          k = 0.6667-0.3333 1.0000 (  5272 PWs)   bands (ev):

   -23.7629 -11.3086  -7.8960  -7.8793  -7.8340   0.1946   0.5319   0.5911

          k = 1.1667-0.8333 1.5000 (  5274 PWs)   bands (ev):

   -23.7650 -11.3198  -7.8584  -7.8565  -7.8321   0.2155   0.6154   0.6580

          k = 0.5000-0.1667 0.8333 (  5272 PWs)   bands (ev):

   -23.7619 -11.3028  -7.9104  -7.9046  -7.8256   0.2312   0.4821   0.5139

          k = 1.0000-0.6667 1.3333 (  5270 PWs)   bands (ev):

   -23.7660 -11.3252  -7.8651  -7.8351  -7.8160   0.2744   0.6044   0.6889

          k =-0.3333-1.0000 0.0000 (  5274 PWs)   bands (ev):

   -23.7615 -11.2842  -7.9530  -7.9115  -7.8417   0.4078   0.4424   0.5543

          k = 0.1667-1.5000 0.5000 (  5281 PWs)   bands (ev):

   -23.7634 -11.3268  -7.8823  -7.8437  -7.8174   0.0743   0.5163   0.5521

          k =-0.1667-0.1667-0.1667 (  5258 PWs)   bands (ev):

   -23.7681 -11.3208  -7.8381  -7.8381  -7.8287   0.5360   0.7246   0.7246

          k = 0.3333-0.6667 0.3333 (  5265 PWs)   bands (ev):

   -23.7629 -11.3241  -7.8720  -7.8554  -7.8317   0.0702   0.4915   0.5421

          k =-0.3333-0.3333-0.3333 (  5303 PWs)   bands (ev):

   -23.7650 -11.3350  -7.8417  -7.8417  -7.8135   0.1091   0.5767   0.5767

          k = 0.1667-0.8333 0.1667 (  5274 PWs)   bands (ev):

   -23.7620 -11.2873  -7.9384  -7.8791  -7.8728   0.3107   0.5325   0.6135

          k = 0.5000 0.5000 0.5000 (  5252 PWs)   bands (ev):

   -23.7633 -11.3421  -7.8434  -7.8434  -7.8059  -0.0711   0.5067   0.5067

          k = 1.0000 0.0000 1.0000 (  5290 PWs)   bands (ev):

   -23.7615 -11.2686  -7.9737  -7.8909  -7.8909   0.3515   0.6495   0.6495

          k =-0.1667-0.5000-0.1667 (  5274 PWs)   bands (ev):

   -23.7650 -11.3198  -7.8584  -7.8565  -7.8321   0.2155   0.6154   0.6580

          k = 0.3333-1.0000 0.3333 (  5256 PWs)   bands (ev):

   -23.7619 -11.3028  -7.9339  -7.8625  -7.8442   0.2341   0.4587   0.5345

          k = 0.1667-0.5000-0.1667 (  5274 PWs)   bands (ev):

   -23.7650 -11.3198  -7.8584  -7.8565  -7.8321   0.2155   0.6154   0.6580

          k = 0.6667-1.0000 0.3333 (  5272 PWs)   bands (ev):

   -23.7629 -11.3086  -7.8960  -7.8793  -7.8340   0.1946   0.5319   0.5911

          k = 0.6667 0.3333 0.6667 (  5265 PWs)   bands (ev):

   -23.7629 -11.3241  -7.8720  -7.8554  -7.8317   0.0702   0.4915   0.5421

          k = 1.1667-0.1667 1.1667 (  5274 PWs)   bands (ev):

   -23.7620 -11.2873  -7.9384  -7.8791  -7.8728   0.3107   0.5325   0.6135

          k =-0.6667 0.3333 0.6667 (  5265 PWs)   bands (ev):

   -23.7629 -11.3241  -7.8720  -7.8554  -7.8317   0.0702   0.4915   0.5421

          k =-0.1667-0.1667 1.1667 (  5274 PWs)   bands (ev):

   -23.7620 -11.2873  -7.9384  -7.8791  -7.8728   0.3107   0.5325   0.6135

          k = 0.5000 0.1667 0.5000 (  5281 PWs)   bands (ev):

   -23.7634 -11.3268  -7.8823  -7.8437  -7.8174   0.0743   0.5163   0.5521

          k = 1.0000-0.3333 1.0000 (  5257 PWs)   bands (ev):

   -23.7635 -11.2961  -7.8892  -7.8771  -7.8771   0.2478   0.6767   0.6767

          k =-0.5000 0.1667 0.5000 (  5281 PWs)   bands (ev):

   -23.7634 -11.3268  -7.8823  -7.8437  -7.8174   0.0743   0.5163   0.5521

          k = 0.0000-0.3333 1.0000 (  5274 PWs)   bands (ev):

   -23.7615 -11.2842  -7.9530  -7.9115  -7.8417   0.4078   0.4424   0.5543

          k =-0.3333-0.0000 0.3333 (  5270 PWs)   bands (ev):

   -23.7660 -11.3252  -7.8651  -7.8351  -7.8160   0.2744   0.6044   0.6889

          k = 0.1667-0.5000 0.8333 (  5272 PWs)   bands (ev):

   -23.7619 -11.3028  -7.9104  -7.9046  -7.8256   0.2312   0.4821   0.5139

          k = 0.8333 0.1667 0.8333 (  5274 PWs)   bands (ev):

   -23.7620 -11.2873  -7.9384  -7.8791  -7.8728   0.3107   0.5325   0.6135

          k = 1.3333-0.3333 1.3333 (  5265 PWs)   bands (ev):

   -23.7629 -11.3241  -7.8720  -7.8554  -7.8317   0.0702   0.4915   0.5421

          k =-0.8333 0.1667 0.8333 (  5274 PWs)   bands (ev):

   -23.7620 -11.2873  -7.9384  -7.8791  -7.8728   0.3107   0.5325   0.6135

          k =-0.3333-0.3333 1.3333 (  5265 PWs)   bands (ev):

   -23.7629 -11.3241  -7.8720  -7.8554  -7.8317   0.0702   0.4915   0.5421

          k =-0.6667 0.0000 0.6667 (  5256 PWs)   bands (ev):

   -23.7619 -11.3028  -7.9339  -7.8625  -7.8442   0.2341   0.4587   0.5345

          k =-0.1667-0.5000 1.1667 (  5272 PWs)   bands (ev):

   -23.7619 -11.3028  -7.9104  -7.9046  -7.8256   0.2312   0.4821   0.5139

          k = 1.0000 0.3333 0.6667 (  5272 PWs)   bands (ev):

   -23.7629 -11.3086  -7.8960  -7.8793  -7.8340   0.1946   0.5319   0.5911

          k = 1.5000-0.1667 1.1667 (  5272 PWs)   bands (ev):

   -23.7619 -11.3028  -7.9104  -7.9046  -7.8256   0.2312   0.4821   0.5139

          k = 0.8333 0.1667 0.5000 (  5272 PWs)   bands (ev):

   -23.7619 -11.3028  -7.9104  -7.9046  -7.8256   0.2312   0.4821   0.5139

          k = 1.3333-0.3333 1.0000 (  5272 PWs)   bands (ev):

   -23.7629 -11.3086  -7.8960  -7.8793  -7.8340   0.1946   0.5319   0.5911

          k =-0.8333 0.1667 0.5000 (  5272 PWs)   bands (ev):

   -23.7619 -11.3028  -7.9104  -7.9046  -7.8256   0.2312   0.4821   0.5139

          k =-0.3333-0.3333 1.0000 (  5256 PWs)   bands (ev):

   -23.7619 -11.3028  -7.9339  -7.8625  -7.8442   0.2341   0.4587   0.5345

     highest occupied level (ev):     0.8030

     Writing output data file ./_ph0/rbbr.q_4/rbbr.save/

     phonon                                                                     

     bravais-lattice index     =            2
     lattice parameter (alat)  =      13.2560  a.u.
     unit-cell volume          =     582.3356 (a.u.)^3
     number of atoms/cell      =            2
     number of atomic types    =            2
     kinetic-energy cut-off    =      66.0000  Ry
     charge density cut-off    =     264.0000  Ry
     convergence threshold     =      1.0E-22
     beta                      =       0.7000
     number of iterations used =            4
     Exchange-correlation= PBE
                           (   1   4   3   4   0   0   0)


     celldm(1)=   13.25596  celldm(2)=    0.00000  celldm(3)=    0.00000
     celldm(4)=    0.00000  celldm(5)=    0.00000  celldm(6)=    0.00000

     crystal axes: (cart. coord. in units of alat)
               a(1) = ( -0.5000  0.0000  0.5000 )  
               a(2) = (  0.0000  0.5000  0.5000 )  
               a(3) = ( -0.5000  0.5000  0.0000 )  

     reciprocal axes: (cart. coord. in units 2 pi/alat)
               b(1) = ( -1.0000 -1.0000  1.0000 )  
               b(2) = (  1.0000  1.0000  1.0000 )  
               b(3) = ( -1.0000  1.0000 -1.0000 )  


     Atoms inside the unit cell: 

     Cartesian axes

     site n.  atom      mass           positions (alat units)
        1     Rb  85.4678   tau(    1) = (    0.00000    0.00000    0.00000  )
        2     Br  79.9040   tau(    2) = (   -0.50000    0.50000    0.50000  )

     Computing dynamical matrix for 
                    q = (   0.5000000  -0.5000000   0.5000000 )
 
     13 Sym.Ops. (with q -> -q+G )


     G cutoff = 1175.0773  (  42087 G-vectors)     FFT grid: ( 50, 50, 50)
     number of k points=    64

     PseudoPot. # 1 for Rb read from file:
     /scratch1/fanchem/RbBr/pp/Rb.pbe-spn-kjpaw_psl.1.0.0.UPF
     MD5 check sum: a11e6fb9d11e64d6427b9eb26aa4a0b1
     Pseudo is Projector augmented-wave + core cor, Zval =  9.0
     Generated using "atomic" code by A. Dal Corso v.6.2.2
     Shape of augmentation charge: PSQ
     Using radial grid of 1219 points,  6 beta functions with: 
                l(1) =   0
                l(2) =   0
                l(3) =   1
                l(4) =   1
                l(5) =   2
                l(6) =   2
     Q(r) pseudized with 0 coefficients 


     PseudoPot. # 2 for Br read from file:
     /scratch1/fanchem/RbBr/pp/Br.pbe-n-kjpaw_psl.1.0.0.UPF
     MD5 check sum: b00de77caabc69c0a6b76eb37264f235
     Pseudo is Projector augmented-wave + core cor, Zval =  7.0
     Generated using "atomic" code by A. Dal Corso v.6.3
     Shape of augmentation charge: PSQ
     Using radial grid of 1213 points,  4 beta functions with: 
                l(1) =   0
                l(2) =   0
                l(3) =   1
                l(4) =   1
     Q(r) pseudized with 0 coefficients 


     Mode symmetry, D_3d (-3m)  point group:


     Atomic displacements:
     There are    4 irreducible representations

     Representation     1      1 modes -  To be done

     Representation     2      2 modes -  To be done

     Representation     3      1 modes -  To be done

     Representation     4      2 modes -  To be done



     Alpha used in Ewald sum =   2.6000
     PHONON       :   6m36.13s CPU   8m29.19s WALL



     Representation #   1 mode #   1

     Self-consistent Calculation

      iter #   1 total cpu time :   510.3 secs   av.it.:   5.0
      thresh= 1.000E-02 alpha_mix =  0.700 |ddv_scf|^2 =  1.293E-05

      iter #   2 total cpu time :   511.8 secs   av.it.:   8.9
      thresh= 3.596E-04 alpha_mix =  0.700 |ddv_scf|^2 =  1.103E-05

      iter #   3 total cpu time :   513.2 secs   av.it.:   8.4
      thresh= 3.321E-04 alpha_mix =  0.700 |ddv_scf|^2 =  1.049E-09

      iter #   4 total cpu time :   515.0 secs   av.it.:   9.0
      thresh= 3.239E-06 alpha_mix =  0.700 |ddv_scf|^2 =  3.342E-10

      iter #   5 total cpu time :   516.2 secs   av.it.:   8.8
      thresh= 1.828E-06 alpha_mix =  0.700 |ddv_scf|^2 =  5.371E-12

      iter #   6 total cpu time :   519.0 secs   av.it.:   9.0
      thresh= 2.318E-07 alpha_mix =  0.700 |ddv_scf|^2 =  5.041E-14

      iter #   7 total cpu time :   522.4 secs   av.it.:   9.0
      thresh= 2.245E-08 alpha_mix =  0.700 |ddv_scf|^2 =  1.540E-15

      iter #   8 total cpu time :   524.3 secs   av.it.:   8.8
      thresh= 3.924E-09 alpha_mix =  0.700 |ddv_scf|^2 =  5.861E-17

      iter #   9 total cpu time :   527.4 secs   av.it.:   8.5
      thresh= 7.656E-10 alpha_mix =  0.700 |ddv_scf|^2 =  1.599E-18

      iter #  10 total cpu time :   529.2 secs   av.it.:   8.9
      thresh= 1.264E-10 alpha_mix =  0.700 |ddv_scf|^2 =  9.868E-20

      iter #  11 total cpu time :   532.6 secs   av.it.:   8.9
      thresh= 3.141E-11 alpha_mix =  0.700 |ddv_scf|^2 =  4.013E-21

      iter #  12 total cpu time :   533.8 secs   av.it.:   9.0
      thresh= 6.335E-12 alpha_mix =  0.700 |ddv_scf|^2 =  5.235E-23

     End of self-consistent calculation

     Convergence has been achieved 


     Representation #   2 modes #   2   3

     Self-consistent Calculation

      iter #   1 total cpu time :   536.8 secs   av.it.:   4.9
      thresh= 1.000E-02 alpha_mix =  0.700 |ddv_scf|^2 =  2.385E-07

      iter #   2 total cpu time :   539.0 secs   av.it.:  10.2
      thresh= 4.883E-05 alpha_mix =  0.700 |ddv_scf|^2 =  3.208E-08

      iter #   3 total cpu time :   541.5 secs   av.it.:   9.9
      thresh= 1.791E-05 alpha_mix =  0.700 |ddv_scf|^2 =  1.763E-10

      iter #   4 total cpu time :   544.2 secs   av.it.:  10.0
      thresh= 1.328E-06 alpha_mix =  0.700 |ddv_scf|^2 =  3.179E-12

      iter #   5 total cpu time :   547.7 secs   av.it.:   9.8
      thresh= 1.783E-07 alpha_mix =  0.700 |ddv_scf|^2 =  1.452E-14

      iter #   6 total cpu time :   551.0 secs   av.it.:   9.6
      thresh= 1.205E-08 alpha_mix =  0.700 |ddv_scf|^2 =  3.607E-16

      iter #   7 total cpu time :   553.8 secs   av.it.:   9.5
      thresh= 1.899E-09 alpha_mix =  0.700 |ddv_scf|^2 =  7.058E-18

      iter #   8 total cpu time :   557.6 secs   av.it.:   9.8
      thresh= 2.657E-10 alpha_mix =  0.700 |ddv_scf|^2 =  1.776E-19

      iter #   9 total cpu time :   561.2 secs   av.it.:   9.8
      thresh= 4.214E-11 alpha_mix =  0.700 |ddv_scf|^2 =  1.264E-20

      iter #  10 total cpu time :   564.5 secs   av.it.:   9.9
      thresh= 1.124E-11 alpha_mix =  0.700 |ddv_scf|^2 =  1.281E-22

      iter #  11 total cpu time :   566.9 secs   av.it.:   9.7
      thresh= 1.132E-12 alpha_mix =  0.700 |ddv_scf|^2 =  1.053E-23

     End of self-consistent calculation

     Convergence has been achieved 


     Representation #   3 mode #   4

     Self-consistent Calculation

      iter #   1 total cpu time :   568.9 secs   av.it.:   5.9
      thresh= 1.000E-02 alpha_mix =  0.700 |ddv_scf|^2 =  1.122E-05

      iter #   2 total cpu time :   571.4 secs   av.it.:   8.9
      thresh= 3.349E-04 alpha_mix =  0.700 |ddv_scf|^2 =  3.023E-06

      iter #   3 total cpu time :   573.4 secs   av.it.:   8.8
      thresh= 1.739E-04 alpha_mix =  0.700 |ddv_scf|^2 =  1.071E-08

      iter #   4 total cpu time :   576.2 secs   av.it.:   9.3
      thresh= 1.035E-05 alpha_mix =  0.700 |ddv_scf|^2 =  1.620E-09

      iter #   5 total cpu time :   579.0 secs   av.it.:   9.5
      thresh= 4.025E-06 alpha_mix =  0.700 |ddv_scf|^2 =  1.773E-10

      iter #   6 total cpu time :   582.2 secs   av.it.:   8.7
      thresh= 1.331E-06 alpha_mix =  0.700 |ddv_scf|^2 =  3.314E-12

      iter #   7 total cpu time :   583.8 secs   av.it.:   8.2
      thresh= 1.820E-07 alpha_mix =  0.700 |ddv_scf|^2 =  1.119E-13

      iter #   8 total cpu time :   585.4 secs   av.it.:   8.3
      thresh= 3.345E-08 alpha_mix =  0.700 |ddv_scf|^2 =  2.382E-17

      iter #   9 total cpu time :   587.2 secs   av.it.:   9.1
      thresh= 4.881E-10 alpha_mix =  0.700 |ddv_scf|^2 =  2.756E-18

      iter #  10 total cpu time :   589.2 secs   av.it.:   8.8
      thresh= 1.660E-10 alpha_mix =  0.700 |ddv_scf|^2 =  1.785E-19

      iter #  11 total cpu time :   591.7 secs   av.it.:   9.5
      thresh= 4.224E-11 alpha_mix =  0.700 |ddv_scf|^2 =  2.354E-20

      iter #  12 total cpu time :   593.8 secs   av.it.:   9.4
      thresh= 1.534E-11 alpha_mix =  0.700 |ddv_scf|^2 =  2.498E-22

      iter #  13 total cpu time :   595.1 secs   av.it.:   9.0
      thresh= 1.580E-12 alpha_mix =  0.700 |ddv_scf|^2 =  1.777E-23

     End of self-consistent calculation

     Convergence has been achieved 


     Representation #   4 modes #   5   6

     Self-consistent Calculation

      iter #   1 total cpu time :   597.3 secs   av.it.:   5.7
      thresh= 1.000E-02 alpha_mix =  0.700 |ddv_scf|^2 =  4.081E-07

      iter #   2 total cpu time :   599.6 secs   av.it.:  10.1
      thresh= 6.388E-05 alpha_mix =  0.700 |ddv_scf|^2 =  3.137E-08

      iter #   3 total cpu time :   602.4 secs   av.it.:   9.9
      thresh= 1.771E-05 alpha_mix =  0.700 |ddv_scf|^2 =  9.245E-10

      iter #   4 total cpu time :   606.4 secs   av.it.:   9.7
      thresh= 3.041E-06 alpha_mix =  0.700 |ddv_scf|^2 =  6.046E-11

      iter #   5 total cpu time :   611.0 secs   av.it.:   8.8
      thresh= 7.776E-07 alpha_mix =  0.700 |ddv_scf|^2 =  2.267E-14

      iter #   6 total cpu time :   613.7 secs   av.it.:  10.0
      thresh= 1.506E-08 alpha_mix =  0.700 |ddv_scf|^2 =  3.633E-16

      iter #   7 total cpu time :   616.1 secs   av.it.:   9.8
      thresh= 1.906E-09 alpha_mix =  0.700 |ddv_scf|^2 =  7.228E-18

      iter #   8 total cpu time :   618.6 secs   av.it.:   9.9
      thresh= 2.688E-10 alpha_mix =  0.700 |ddv_scf|^2 =  9.778E-20

      iter #   9 total cpu time :   621.0 secs   av.it.:   9.8
      thresh= 3.127E-11 alpha_mix =  0.700 |ddv_scf|^2 =  8.633E-21

      iter #  10 total cpu time :   623.9 secs   av.it.:   9.8
      thresh= 9.291E-12 alpha_mix =  0.700 |ddv_scf|^2 =  1.045E-22

      iter #  11 total cpu time :   626.0 secs   av.it.:   9.5
      thresh= 1.022E-12 alpha_mix =  0.700 |ddv_scf|^2 =  5.495E-24

     End of self-consistent calculation

     Convergence has been achieved 
 
     Number of q in the star =    4
     List of q in the star:
          1   0.500000000  -0.500000000   0.500000000
          2   0.500000000   0.500000000   0.500000000
          3  -0.500000000   0.500000000   0.500000000
          4   0.500000000   0.500000000  -0.500000000

     Diagonalizing the dynamical matrix

     q = (    0.500000000  -0.500000000   0.500000000 ) 

 **************************************************************************
     freq (    1) =       1.718996 [THz] =      57.339538 [cm-1]
     freq (    2) =       1.718996 [THz] =      57.339538 [cm-1]
     freq (    3) =       1.812896 [THz] =      60.471715 [cm-1]
     freq (    4) =       1.812896 [THz] =      60.471715 [cm-1]
     freq (    5) =       2.501232 [THz] =      83.432112 [cm-1]
     freq (    6) =       2.673405 [THz] =      89.175204 [cm-1]
 **************************************************************************

     Mode symmetry, D_3d (-3m)  point group:

     freq (   1-   2) =         57.3  [cm-1]   --> E_u  L_3'          
     freq (   3-   4) =         60.5  [cm-1]   --> E_g  L_3           
     freq (   5-   5) =         83.4  [cm-1]   --> A_1g L_1           
     freq (   6-   6) =         89.2  [cm-1]   --> A_2u L_2'          

     Calculation of q =    0.0000000   0.3333333   0.0000000
 
     G-vector sticks info
     --------------------
     sticks:   dense  smooth     PW     G-vecs:    dense   smooth      PW
     Sum        1597    1597    475                42087    42087    6855
 

     Title: 
     phonon                                                                     


     bravais-lattice index     =            2
     lattice parameter (alat)  =      13.2560  a.u.
     unit-cell volume          =     582.3356 (a.u.)^3
     number of atoms/cell      =            2
     number of atomic types    =            2
     number of electrons       =        16.00
     number of Kohn-Sham states=            8
     kinetic-energy cutoff     =      66.0000  Ry
     charge density cutoff     =     264.0000  Ry
     Exchange-correlation= PBE
                           (   1   4   3   4   0   0   0)

     celldm(1)=  13.255958  celldm(2)=   0.000000  celldm(3)=   0.000000
     celldm(4)=   0.000000  celldm(5)=   0.000000  celldm(6)=   0.000000

     crystal axes: (cart. coord. in units of alat)
               a(1) = (  -0.500000   0.000000   0.500000 )  
               a(2) = (   0.000000   0.500000   0.500000 )  
               a(3) = (  -0.500000   0.500000   0.000000 )  

     reciprocal axes: (cart. coord. in units 2 pi/alat)
               b(1) = ( -1.000000 -1.000000  1.000000 )  
               b(2) = (  1.000000  1.000000  1.000000 )  
               b(3) = ( -1.000000  1.000000 -1.000000 )  


     PseudoPot. # 1 for Rb read from file:
     /scratch1/fanchem/RbBr/pp/Rb.pbe-spn-kjpaw_psl.1.0.0.UPF
     MD5 check sum: a11e6fb9d11e64d6427b9eb26aa4a0b1
     Pseudo is Projector augmented-wave + core cor, Zval =  9.0
     Generated using "atomic" code by A. Dal Corso v.6.2.2
     Shape of augmentation charge: PSQ
     Using radial grid of 1219 points,  6 beta functions with: 
                l(1) =   0
                l(2) =   0
                l(3) =   1
                l(4) =   1
                l(5) =   2
                l(6) =   2
     Q(r) pseudized with 0 coefficients 


     PseudoPot. # 2 for Br read from file:
     /scratch1/fanchem/RbBr/pp/Br.pbe-n-kjpaw_psl.1.0.0.UPF
     MD5 check sum: b00de77caabc69c0a6b76eb37264f235
     Pseudo is Projector augmented-wave + core cor, Zval =  7.0
     Generated using "atomic" code by A. Dal Corso v.6.3
     Shape of augmentation charge: PSQ
     Using radial grid of 1213 points,  4 beta functions with: 
                l(1) =   0
                l(2) =   0
                l(3) =   1
                l(4) =   1
     Q(r) pseudized with 0 coefficients 


     atomic species   valence    mass     pseudopotential
        Rb             9.00    85.46780     Rb( 1.00)
        Br             7.00    79.90400     Br( 1.00)

     48 Sym. Ops., with inversion, found



   Cartesian axes

     site n.     atom                  positions (alat units)
         1           Rb  tau(   1) = (   0.0000000   0.0000000   0.0000000  )
         2           Br  tau(   2) = (  -0.5000000   0.5000000   0.5000000  )

     number of k points=    96
                       cart. coord. in units 2pi/alat
        k(    1) = (   0.0000000   0.0000000   0.0000000), wk =   0.0092593
        k(    2) = (   0.0000000   0.3333333   0.0000000), wk =   0.0000000
        k(    3) = (  -0.1666667   0.1666667  -0.1666667), wk =   0.0370370
        k(    4) = (  -0.1666667   0.5000000  -0.1666667), wk =   0.0000000
        k(    5) = (  -0.3333333   0.3333333  -0.3333333), wk =   0.0370370
        k(    6) = (  -0.3333333   0.6666667  -0.3333333), wk =   0.0000000
        k(    7) = (   0.5000000  -0.5000000   0.5000000), wk =   0.0370370
        k(    8) = (   0.5000000  -0.1666667   0.5000000), wk =   0.0000000
        k(    9) = (   0.0000000   0.3333333   0.0000000), wk =   0.0092593
[...]
     Shape of augmentation charge: PSQ
     Using radial grid of 1213 points,  4 beta functions with: 
                l(1) =   0
                l(2) =   0
                l(3) =   1
                l(4) =   1
     Q(r) pseudized with 0 coefficients 


     Mode symmetry, C_2v (mm2)  point group:


     Atomic displacements:
     There are    6 irreducible representations

     Representation     1      1 modes -  To be done

     Representation     2      1 modes -  To be done

     Representation     3      1 modes -  To be done

     Representation     4      1 modes -  To be done

     Representation     5      1 modes -  To be done

     Representation     6      1 modes -  To be done



     Alpha used in Ewald sum =   2.6000
     PHONON       :  39m52.42s CPU  50m33.59s WALL



     Representation #   1 mode #   1

     Self-consistent Calculation

      iter #   1 total cpu time :  3034.7 secs   av.it.:   5.0
      thresh= 1.000E-02 alpha_mix =  0.700 |ddv_scf|^2 =  1.905E-06

      iter #   2 total cpu time :  3036.4 secs   av.it.:   9.6
      thresh= 1.380E-04 alpha_mix =  0.700 |ddv_scf|^2 =  4.332E-07

      iter #   3 total cpu time :  3038.1 secs   av.it.:   9.2
      thresh= 6.582E-05 alpha_mix =  0.700 |ddv_scf|^2 =  1.087E-09

      iter #   4 total cpu time :  3040.0 secs   av.it.:   9.9
      thresh= 3.297E-06 alpha_mix =  0.700 |ddv_scf|^2 =  7.915E-11

      iter #   5 total cpu time :  3042.4 secs   av.it.:   9.9
      thresh= 8.897E-07 alpha_mix =  0.700 |ddv_scf|^2 =  1.222E-11

      iter #   6 total cpu time :  3045.1 secs   av.it.:   9.2
      thresh= 3.495E-07 alpha_mix =  0.700 |ddv_scf|^2 =  5.912E-13

      iter #   7 total cpu time :  3047.5 secs   av.it.:   9.8
      thresh= 7.689E-08 alpha_mix =  0.700 |ddv_scf|^2 =  4.081E-14

      iter #   8 total cpu time :  3049.6 secs   av.it.:   9.8
      thresh= 2.020E-08 alpha_mix =  0.700 |ddv_scf|^2 =  1.293E-15

      iter #   9 total cpu time :  3051.2 secs   av.it.:   9.4
      thresh= 3.596E-09 alpha_mix =  0.700 |ddv_scf|^2 =  3.206E-17

      iter #  10 total cpu time :  3053.4 secs   av.it.:   9.5
      thresh= 5.663E-10 alpha_mix =  0.700 |ddv_scf|^2 =  1.805E-18

      iter #  11 total cpu time :  3055.0 secs   av.it.:   9.7
      thresh= 1.344E-10 alpha_mix =  0.700 |ddv_scf|^2 =  1.109E-19

      iter #  12 total cpu time :  3056.6 secs   av.it.:   9.6
      thresh= 3.330E-11 alpha_mix =  0.700 |ddv_scf|^2 =  4.401E-21

      iter #  13 total cpu time :  3058.8 secs   av.it.:   9.9
      thresh= 6.634E-12 alpha_mix =  0.700 |ddv_scf|^2 =  4.705E-22

      iter #  14 total cpu time :  3060.3 secs   av.it.:   9.6
      thresh= 2.169E-12 alpha_mix =  0.700 |ddv_scf|^2 =  4.048E-23

     End of self-consistent calculation

     Convergence has been achieved 


     Representation #   2 mode #   2

     Self-consistent Calculation

      iter #   1 total cpu time :  3062.2 secs   av.it.:   5.7
      thresh= 1.000E-02 alpha_mix =  0.700 |ddv_scf|^2 =  2.712E-06

      iter #   2 total cpu time :  3064.4 secs   av.it.:   9.5
      thresh= 1.647E-04 alpha_mix =  0.700 |ddv_scf|^2 =  3.960E-07

      iter #   3 total cpu time :  3065.9 secs   av.it.:   9.7
      thresh= 6.293E-05 alpha_mix =  0.700 |ddv_scf|^2 =  8.292E-09

      iter #   4 total cpu time :  3068.3 secs   av.it.:   9.7
      thresh= 9.106E-06 alpha_mix =  0.700 |ddv_scf|^2 =  9.422E-10

      iter #   5 total cpu time :  3070.6 secs   av.it.:   9.7
      thresh= 3.069E-06 alpha_mix =  0.700 |ddv_scf|^2 =  6.608E-11

      iter #   6 total cpu time :  3073.1 secs   av.it.:   9.5
      thresh= 8.129E-07 alpha_mix =  0.700 |ddv_scf|^2 =  6.748E-12

      iter #   7 total cpu time :  3075.4 secs   av.it.:   9.3
      thresh= 2.598E-07 alpha_mix =  0.700 |ddv_scf|^2 =  6.116E-13

      iter #   8 total cpu time :  3079.8 secs   av.it.:   9.5
      thresh= 7.820E-08 alpha_mix =  0.700 |ddv_scf|^2 =  5.061E-15

      iter #   9 total cpu time :  3081.9 secs   av.it.:   9.7
      thresh= 7.114E-09 alpha_mix =  0.700 |ddv_scf|^2 =  2.629E-16

      iter #  10 total cpu time :  3083.8 secs   av.it.:   9.7
      thresh= 1.622E-09 alpha_mix =  0.700 |ddv_scf|^2 =  2.654E-17

      iter #  11 total cpu time :  3086.3 secs   av.it.:   9.8
      thresh= 5.152E-10 alpha_mix =  0.700 |ddv_scf|^2 =  1.827E-18

      iter #  12 total cpu time :  3088.3 secs   av.it.:   9.2
      thresh= 1.352E-10 alpha_mix =  0.700 |ddv_scf|^2 =  3.598E-20

      iter #  13 total cpu time :  3090.1 secs   av.it.:   9.7
      thresh= 1.897E-11 alpha_mix =  0.700 |ddv_scf|^2 =  2.474E-21

      iter #  14 total cpu time :  3091.4 secs   av.it.:   9.1
      thresh= 4.974E-12 alpha_mix =  0.700 |ddv_scf|^2 =  7.263E-23

     End of self-consistent calculation

     Convergence has been achieved 


     Representation #   3 mode #   3

     Self-consistent Calculation

      iter #   1 total cpu time :  3093.5 secs   av.it.:   5.8
      thresh= 1.000E-02 alpha_mix =  0.700 |ddv_scf|^2 =  4.014E-06

      iter #   2 total cpu time :  3096.1 secs   av.it.:   9.4
      thresh= 2.004E-04 alpha_mix =  0.700 |ddv_scf|^2 =  1.302E-06

      iter #   3 total cpu time :  3098.7 secs   av.it.:   9.2
      thresh= 1.141E-04 alpha_mix =  0.700 |ddv_scf|^2 =  8.529E-09

      iter #   4 total cpu time :  3101.5 secs   av.it.:   9.2
      thresh= 9.236E-06 alpha_mix =  0.700 |ddv_scf|^2 =  8.064E-10

      iter #   5 total cpu time :  3104.2 secs   av.it.:   9.3
      thresh= 2.840E-06 alpha_mix =  0.700 |ddv_scf|^2 =  4.360E-11

      iter #   6 total cpu time :  3106.8 secs   av.it.:   8.8
      thresh= 6.603E-07 alpha_mix =  0.700 |ddv_scf|^2 =  2.400E-13

      iter #   7 total cpu time :  3109.7 secs   av.it.:   8.8
      thresh= 4.899E-08 alpha_mix =  0.700 |ddv_scf|^2 =  5.985E-15

      iter #   8 total cpu time :  3112.8 secs   av.it.:   9.1
      thresh= 7.736E-09 alpha_mix =  0.700 |ddv_scf|^2 =  1.912E-17

      iter #   9 total cpu time :  3114.6 secs   av.it.:   8.8
      thresh= 4.373E-10 alpha_mix =  0.700 |ddv_scf|^2 =  5.333E-19

      iter #  10 total cpu time :  3116.5 secs   av.it.:   9.7
      thresh= 7.303E-11 alpha_mix =  0.700 |ddv_scf|^2 =  4.149E-20

      iter #  11 total cpu time :  3118.9 secs   av.it.:   9.6
      thresh= 2.037E-11 alpha_mix =  0.700 |ddv_scf|^2 =  3.804E-21

      iter #  12 total cpu time :  3120.4 secs   av.it.:   9.2
      thresh= 6.167E-12 alpha_mix =  0.700 |ddv_scf|^2 =  5.206E-23

     End of self-consistent calculation

     Convergence has been achieved 


     Representation #   4 mode #   4

     Self-consistent Calculation

      iter #   1 total cpu time :  3123.4 secs   av.it.:   5.0
      thresh= 1.000E-02 alpha_mix =  0.700 |ddv_scf|^2 =  2.534E-06

      iter #   2 total cpu time :  3125.8 secs   av.it.:   9.6
      thresh= 1.592E-04 alpha_mix =  0.700 |ddv_scf|^2 =  9.309E-07

      iter #   3 total cpu time :  3129.4 secs   av.it.:   9.2
      thresh= 9.648E-05 alpha_mix =  0.700 |ddv_scf|^2 =  1.422E-09

      iter #   4 total cpu time :  3131.3 secs   av.it.:   9.6
      thresh= 3.771E-06 alpha_mix =  0.700 |ddv_scf|^2 =  6.674E-11

      iter #   5 total cpu time :  3132.9 secs   av.it.:   9.6
      thresh= 8.169E-07 alpha_mix =  0.700 |ddv_scf|^2 =  7.919E-12

      iter #   6 total cpu time :  3134.6 secs   av.it.:   9.1
      thresh= 2.814E-07 alpha_mix =  0.700 |ddv_scf|^2 =  4.248E-14

      iter #   7 total cpu time :  3136.4 secs   av.it.:   8.7
      thresh= 2.061E-08 alpha_mix =  0.700 |ddv_scf|^2 =  3.795E-15

      iter #   8 total cpu time :  3139.0 secs   av.it.:   8.9
      thresh= 6.160E-09 alpha_mix =  0.700 |ddv_scf|^2 =  2.913E-17

      iter #   9 total cpu time :  3140.7 secs   av.it.:   8.4
      thresh= 5.397E-10 alpha_mix =  0.700 |ddv_scf|^2 =  1.407E-18

      iter #  10 total cpu time :  3142.6 secs   av.it.:   9.4
      thresh= 1.186E-10 alpha_mix =  0.700 |ddv_scf|^2 =  3.658E-20

      iter #  11 total cpu time :  3144.2 secs   av.it.:   9.8
      thresh= 1.913E-11 alpha_mix =  0.700 |ddv_scf|^2 =  4.028E-21

      iter #  12 total cpu time :  3146.8 secs   av.it.:   9.5
      thresh= 6.347E-12 alpha_mix =  0.700 |ddv_scf|^2 =  1.701E-22

      iter #  13 total cpu time :  3148.3 secs   av.it.:   9.0
      thresh= 1.304E-12 alpha_mix =  0.700 |ddv_scf|^2 =  1.022E-23

     End of self-consistent calculation

     Convergence has been achieved 


     Representation #   5 mode #   5

     Self-consistent Calculation

      iter #   1 total cpu time :  3150.8 secs   av.it.:   5.0
      thresh= 1.000E-02 alpha_mix =  0.700 |ddv_scf|^2 =  5.625E-06

      iter #   2 total cpu time :  3152.9 secs   av.it.:   9.4
      thresh= 2.372E-04 alpha_mix =  0.700 |ddv_scf|^2 =  3.795E-06

      iter #   3 total cpu time :  3154.9 secs   av.it.:   8.9
      thresh= 1.948E-04 alpha_mix =  0.700 |ddv_scf|^2 =  1.954E-09

      iter #   4 total cpu time :  3157.2 secs   av.it.:   9.5
      thresh= 4.421E-06 alpha_mix =  0.700 |ddv_scf|^2 =  9.954E-11

      iter #   5 total cpu time :  3159.3 secs   av.it.:   9.6
      thresh= 9.977E-07 alpha_mix =  0.700 |ddv_scf|^2 =  2.015E-11

      iter #   6 total cpu time :  3161.4 secs   av.it.:   8.9
      thresh= 4.489E-07 alpha_mix =  0.700 |ddv_scf|^2 =  4.479E-14

      iter #   7 total cpu time :  3163.1 secs   av.it.:   8.6
      thresh= 2.116E-08 alpha_mix =  0.700 |ddv_scf|^2 =  6.692E-15

      iter #   8 total cpu time :  3164.8 secs   av.it.:   8.9
      thresh= 8.180E-09 alpha_mix =  0.700 |ddv_scf|^2 =  4.375E-17

      iter #   9 total cpu time :  3166.5 secs   av.it.:   8.0
      thresh= 6.614E-10 alpha_mix =  0.700 |ddv_scf|^2 =  3.203E-18

      iter #  10 total cpu time :  3168.4 secs   av.it.:   9.2
      thresh= 1.790E-10 alpha_mix =  0.700 |ddv_scf|^2 =  8.798E-20

      iter #  11 total cpu time :  3170.2 secs   av.it.:   9.8
      thresh= 2.966E-11 alpha_mix =  0.700 |ddv_scf|^2 =  8.936E-21

      iter #  12 total cpu time :  3172.2 secs   av.it.:   9.3
      thresh= 9.453E-12 alpha_mix =  0.700 |ddv_scf|^2 =  3.941E-22

      iter #  13 total cpu time :  3173.6 secs   av.it.:   8.9
      thresh= 1.985E-12 alpha_mix =  0.700 |ddv_scf|^2 =  4.254E-23

     End of self-consistent calculation

     Convergence has been achieved 


     Representation #   6 mode #   6

     Self-consistent Calculation

      iter #   1 total cpu time :  3177.9 secs   av.it.:   5.9
      thresh= 1.000E-02 alpha_mix =  0.700 |ddv_scf|^2 =  8.526E-06

      iter #   2 total cpu time :  3180.2 secs   av.it.:   9.3
      thresh= 2.920E-04 alpha_mix =  0.700 |ddv_scf|^2 =  5.406E-06

      iter #   3 total cpu time :  3182.4 secs   av.it.:   8.9
      thresh= 2.325E-04 alpha_mix =  0.700 |ddv_scf|^2 =  1.080E-08

      iter #   4 total cpu time :  3184.2 secs   av.it.:   9.3
      thresh= 1.039E-05 alpha_mix =  0.700 |ddv_scf|^2 =  9.723E-10

      iter #   5 total cpu time :  3186.2 secs   av.it.:   9.2
      thresh= 3.118E-06 alpha_mix =  0.700 |ddv_scf|^2 =  6.049E-11

      iter #   6 total cpu time :  3188.2 secs   av.it.:   8.7
      thresh= 7.777E-07 alpha_mix =  0.700 |ddv_scf|^2 =  7.083E-13

      iter #   7 total cpu time :  3189.9 secs   av.it.:   8.7
      thresh= 8.416E-08 alpha_mix =  0.700 |ddv_scf|^2 =  1.229E-14

      iter #   8 total cpu time :  3191.8 secs   av.it.:   8.9
      thresh= 1.108E-08 alpha_mix =  0.700 |ddv_scf|^2 =  3.544E-17

      iter #   9 total cpu time :  3193.3 secs   av.it.:   8.8
      thresh= 5.953E-10 alpha_mix =  0.700 |ddv_scf|^2 =  2.034E-18

      iter #  10 total cpu time :  3195.7 secs   av.it.:   9.6
      thresh= 1.426E-10 alpha_mix =  0.700 |ddv_scf|^2 =  1.011E-19

      iter #  11 total cpu time :  3197.4 secs   av.it.:   9.7
      thresh= 3.179E-11 alpha_mix =  0.700 |ddv_scf|^2 =  1.119E-20

      iter #  12 total cpu time :  3199.0 secs   av.it.:   9.5
      thresh= 1.058E-11 alpha_mix =  0.700 |ddv_scf|^2 =  1.089E-21

      iter #  13 total cpu time :  3202.1 secs   av.it.:   9.5
      thresh= 3.300E-12 alpha_mix =  0.700 |ddv_scf|^2 =  2.270E-22

      iter #  14 total cpu time :  3203.9 secs   av.it.:   9.1
      thresh= 1.507E-12 alpha_mix =  0.700 |ddv_scf|^2 =  9.305E-24

     End of self-consistent calculation

     Convergence has been achieved 
 
     Number of q in the star =   12
     List of q in the star:
          1  -0.333333333  -1.000000000  -0.000000000
          2   0.000000000  -1.000000000  -0.333333333
          3   0.000000000  -1.000000000   0.333333333
          4   0.333333333  -1.000000000  -0.000000000
          5  -1.000000000   0.000000000  -0.333333333
          6   1.000000000  -0.000000000   0.333333333
          7   0.000000000   0.333333333   1.000000000
          8   0.000000000  -0.333333333  -1.000000000
          9  -1.000000000  -0.333333333   0.000000000
         10   1.000000000   0.333333333   0.000000000
         11  -0.333333333   0.000000000   1.000000000
         12   0.333333333   0.000000000   1.000000000

     Diagonalizing the dynamical matrix

     q = (   -0.333333333  -1.000000000   0.000000000 ) 

 **************************************************************************
     freq (    1) =       1.294519 [THz] =      43.180497 [cm-1]
     freq (    2) =       1.627199 [THz] =      54.277506 [cm-1]
     freq (    3) =       1.689167 [THz] =      56.344537 [cm-1]
     freq (    4) =       2.246727 [THz] =      74.942740 [cm-1]
     freq (    5) =       2.399960 [THz] =      80.054032 [cm-1]
     freq (    6) =       2.461024 [THz] =      82.090933 [cm-1]
 **************************************************************************

     Mode symmetry, C_2v (mm2)  point group:

     freq (   1-   1) =         43.2  [cm-1]   --> B_1  D_3  S_3      
     freq (   2-   2) =         54.3  [cm-1]   --> A_1  D_1  S_1      
     freq (   3-   3) =         56.3  [cm-1]   --> B_2  D_4  S_4      
     freq (   4-   4) =         74.9  [cm-1]   --> A_1  D_1  S_1      
     freq (   5-   5) =         80.1  [cm-1]   --> B_1  D_3  S_3      
     freq (   6-   6) =         82.1  [cm-1]   --> B_2  D_4  S_4      
 
     init_run     :      8.58s CPU     13.31s WALL (      15 calls)
     electrons    :     20.33s CPU     21.50s WALL (      15 calls)

     Called by init_run:
     wfcinit      :      0.00s CPU      0.25s WALL (      15 calls)
     potinit      :      1.62s CPU      6.01s WALL (      15 calls)
     hinit0       :      4.90s CPU      4.98s WALL (      15 calls)

     Called by electrons:
     c_bands      :     20.28s CPU     21.45s WALL (      15 calls)
     v_of_rho     :      0.87s CPU      0.94s WALL (      16 calls)
     newd         :      0.08s CPU      0.08s WALL (      16 calls)
     PAW_pot      :      0.59s CPU      0.61s WALL (      16 calls)

     Called by c_bands:
     init_us_2    :      5.31s CPU      5.46s WALL (    3561 calls)
     cegterg      :     14.06s CPU     14.31s WALL (      78 calls)

     Called by *egterg:
     cdiaghg      :      0.15s CPU      0.15s WALL (     852 calls)
     h_psi        :    618.48s CPU    630.47s WALL (   41219 calls)
     s_psi        :     42.06s CPU     43.10s WALL (   84919 calls)
     g_psi        :      0.08s CPU      0.08s WALL (     774 calls)

     Called by h_psi:
     h_psi:calbec :     19.07s CPU     19.46s WALL (   41219 calls)
     vloc_psi     :    574.79s CPU    585.84s WALL (   41219 calls)
     add_vuspsi   :     19.92s CPU     20.43s WALL (   41219 calls)

     General routines
     calbec       :     38.19s CPU     39.14s WALL (   90374 calls)
     fft          :     22.08s CPU     22.53s WALL (   20735 calls)
     ffts         :      0.77s CPU      0.79s WALL (     822 calls)
     fftw         :    552.01s CPU    564.19s WALL (  654392 calls)
     davcio       :      7.86s CPU    206.79s WALL (   29401 calls)
 
     Parallel routines
 
     PHONON       :  42m 9.24s CPU  53m27.26s WALL

     INITIALIZATION: 
     phq_setup    :      2.12s CPU      3.93s WALL (      16 calls)
     phq_init     :    120.28s CPU    123.59s WALL (      16 calls)
 
     phq_init     :    120.28s CPU    123.59s WALL (      16 calls)
     set_drhoc    :     27.86s CPU     28.01s WALL (      48 calls)
     init_vloc    :      0.05s CPU      0.06s WALL (      16 calls)
     init_us_1    :      4.27s CPU      4.33s WALL (      16 calls)
     newd         :      0.08s CPU      0.08s WALL (      16 calls)
     dvanqq       :     51.90s CPU     52.56s WALL (      16 calls)
     drho         :     31.42s CPU     33.07s WALL (      16 calls)
 
     DYNAMICAL MATRIX:
     dynmat0      :     21.53s CPU     22.27s WALL (      16 calls)
     phqscf       :   2333.75s CPU   2974.39s WALL (      16 calls)
     dynmatrix    :      2.18s CPU      3.05s WALL (      16 calls)
 
     phqscf       :   2333.75s CPU   2974.39s WALL (      16 calls)
     solve_linter :   2328.90s CPU   2953.78s WALL (      80 calls)
     drhodv       :      3.96s CPU      5.66s WALL (      80 calls)
 
     dynmat0      :     21.53s CPU     22.27s WALL (      16 calls)
     dynmat_us    :      0.92s CPU      0.98s WALL (      16 calls)
     d2ionq       :      0.12s CPU      0.12s WALL (      16 calls)
     dynmatcc     :     19.76s CPU     19.85s WALL (      16 calls)
 
     dynmat_us    :      0.92s CPU      0.98s WALL (      16 calls)
     addusdynmat  :      0.00s CPU      0.00s WALL (      16 calls)
 
     phqscf       :   2333.75s CPU   2974.39s WALL (      16 calls)
     solve_linter :   2328.90s CPU   2953.78s WALL (      80 calls)
 
     solve_linter :   2328.90s CPU   2953.78s WALL (      80 calls)
     dvqpsi_us    :      5.17s CPU      5.30s WALL (     246 calls)
     ortho        :      4.95s CPU      5.18s WALL (    3408 calls)
     cgsolve      :    736.39s CPU    751.70s WALL (    3408 calls)
     incdrhoscf   :     92.31s CPU     95.13s WALL (    3408 calls)
     addusddens   :    248.55s CPU    265.81s WALL (    1192 calls)
     vpsifft      :     55.61s CPU     58.36s WALL (    3132 calls)
     dv_of_drho   :     62.88s CPU     63.95s WALL (    1334 calls)
     mix_pot      :      9.68s CPU    304.78s WALL (    1123 calls)
     psymdvscf    :     36.56s CPU     36.87s WALL (    1112 calls)
     newdq        :    274.40s CPU    277.98s WALL (    1123 calls)
     adddvscf     :      3.71s CPU      3.83s WALL (    3162 calls)
     drhodvus     :      3.22s CPU      8.73s WALL (      80 calls)
 
     dvqpsi_us    :      5.17s CPU      5.30s WALL (     246 calls)
     dvqpsi_us_on :      0.42s CPU      0.43s WALL (     246 calls)
 
     cgsolve      :    736.39s CPU    751.70s WALL (    3408 calls)
     ch_psi       :    708.49s CPU    722.48s WALL (   40289 calls)
 
     ch_psi       :    708.49s CPU    722.48s WALL (   40289 calls)
     h_psi        :    618.48s CPU    630.47s WALL (   41219 calls)
     last         :     70.75s CPU     72.24s WALL (   40289 calls)
 
     h_psi        :    618.48s CPU    630.47s WALL (   41219 calls)
     add_vuspsi   :     19.92s CPU     20.43s WALL (   41219 calls)
 
     incdrhoscf   :     92.31s CPU     95.13s WALL (    3408 calls)
     addusdbec    :      1.97s CPU      2.00s WALL (    3648 calls)
 
     drhodvus     :      3.22s CPU      8.73s WALL (      80 calls)
 
      General routines
     calbec       :     38.19s CPU     39.14s WALL (   90374 calls)
     fft          :     22.08s CPU     22.53s WALL (   20735 calls)
     ffts         :      0.77s CPU      0.79s WALL (     822 calls)
     fftw         :    552.01s CPU    564.19s WALL (  654392 calls)
     davcio       :      7.86s CPU    206.79s WALL (   29401 calls)
     write_rec    :      3.51s CPU    236.94s WALL (    1203 calls)
 
 
     PHONON       :  42m 9.24s CPU  53m27.26s WALL

 
   This run was terminated on:   0: 9:45  21Mar2022            

=------------------------------------------------------------------------------=
   JOB DONE.
=------------------------------------------------------------------------------=
