
     Program Q2R v.6.6 starts on 21Mar2022 at  0: 9:46 

     This program is part of the open-source Quantum ESPRESSO suite
     for quantum simulation of materials; please cite
         "P. Giannozzi et al., J. Phys.:Condens. Matter 21 395502 (2009);
         "P. Giannozzi et al., J. Phys.:Condens. Matter 29 465901 (2017);
          URL http://www.quantum-espresso.org", 
     in publications or presentations arising from this work. More details at
     http://www.quantum-espresso.org/quote

     Parallel version (MPI), running on     1 processors

     MPI processes distributed on     1 nodes
     Fft bands division:     nmany     =       1

     reading grid info from file rbbr.dyn0    
  reading force constants from file rbbr.dyn1
 macroscopic fields = T
   2.46415   0.00000   0.00000
   0.00000   2.46415   0.00000
   0.00000   0.00000   2.46415
  na=            1
   1.16418   0.00000   0.00000
   0.00000   1.16418   0.00000
   0.00000   0.00000   1.16418
  na=            2
  -1.16532   0.00000   0.00000
   0.00000  -1.16532   0.00000
   0.00000   0.00000  -1.16532
Norm of the difference between old and new effective charges:    0.00139422744392451656
  nqs=            1
 q=   0.00000000  0.00000000  0.00000000
  reading force constants from file rbbr.dyn2
  nqs=            8
 q=  -0.16666667  0.16666667 -0.16666667
 q=   0.16666667  0.16666667  0.16666667
 q=  -0.16666667 -0.16666667 -0.16666667
 q=   0.16666667 -0.16666667  0.16666667
 q=   0.16666667 -0.16666667 -0.16666667
 q=   0.16666667  0.16666667 -0.16666667
 q=  -0.16666667 -0.16666667  0.16666667
 q=  -0.16666667  0.16666667  0.16666667
  reading force constants from file rbbr.dyn3
  nqs=            8
 q=  -0.33333333  0.33333333 -0.33333333
 q=   0.33333333  0.33333333  0.33333333
 q=  -0.33333333 -0.33333333 -0.33333333
 q=   0.33333333 -0.33333333  0.33333333
 q=   0.33333333 -0.33333333 -0.33333333
 q=   0.33333333  0.33333333 -0.33333333
 q=  -0.33333333 -0.33333333  0.33333333
 q=  -0.33333333  0.33333333  0.33333333
  reading force constants from file rbbr.dyn4
  nqs=            4
 q=   0.50000000 -0.50000000  0.50000000
 q=   0.50000000  0.50000000  0.50000000
 q=  -0.50000000  0.50000000  0.50000000
 q=   0.50000000  0.50000000 -0.50000000
  reading force constants from file rbbr.dyn5
  nqs=            6
 q=   0.00000000  0.33333333  0.00000000
 q=   0.33333333  0.00000000  0.00000000
 q=   0.00000000  0.00000000  0.33333333
 q=   0.00000000 -0.33333333  0.00000000
 q=  -0.33333333  0.00000000  0.00000000
 q=   0.00000000  0.00000000 -0.33333333
  reading force constants from file rbbr.dyn6
  nqs=           24
 q=  -0.16666667  0.50000000 -0.16666667
 q=   0.16666667  0.50000000  0.16666667
 q=  -0.16666667  0.50000000  0.16666667
 q=   0.16666667  0.50000000 -0.16666667
 q=   0.50000000 -0.16666667  0.16666667
 q=   0.16666667 -0.16666667  0.50000000
 q=  -0.16666667 -0.50000000 -0.16666667
 q=   0.16666667 -0.50000000 -0.16666667
 q=  -0.16666667 -0.50000000  0.16666667
 q=   0.50000000 -0.16666667 -0.16666667
 q=  -0.50000000 -0.16666667  0.16666667
 q=   0.50000000  0.16666667  0.16666667
 q=  -0.16666667  0.16666667 -0.50000000
 q=  -0.16666667 -0.16666667  0.50000000
 q=   0.16666667  0.16666667  0.50000000
 q=   0.16666667 -0.16666667 -0.50000000
 q=  -0.50000000  0.16666667 -0.16666667
 q=  -0.50000000 -0.16666667 -0.16666667
 q=   0.16666667 -0.50000000  0.16666667
 q=   0.50000000  0.16666667 -0.16666667
 q=   0.16666667  0.16666667 -0.50000000
 q=  -0.16666667 -0.16666667 -0.50000000
 q=  -0.50000000  0.16666667  0.16666667
 q=  -0.16666667  0.16666667  0.50000000
  reading force constants from file rbbr.dyn7
  nqs=           24
 q=   0.66666667 -0.33333333  0.66666667
 q=  -0.66666667 -0.33333333 -0.66666667
 q=   0.66666667 -0.33333333 -0.66666667
 q=  -0.66666667 -0.33333333  0.66666667
 q=  -0.33333333  0.66666667 -0.66666667
 q=  -0.66666667  0.66666667 -0.33333333
 q=   0.66666667  0.33333333  0.66666667
 q=  -0.66666667  0.33333333  0.66666667
 q=   0.66666667  0.33333333 -0.66666667
 q=  -0.33333333  0.66666667  0.66666667
 q=   0.33333333  0.66666667 -0.66666667
 q=  -0.33333333 -0.66666667 -0.66666667
 q=   0.66666667 -0.66666667  0.33333333
 q=   0.66666667  0.66666667 -0.33333333
 q=  -0.66666667 -0.66666667 -0.33333333
 q=  -0.66666667  0.66666667  0.33333333
 q=   0.33333333 -0.66666667  0.66666667
 q=   0.33333333  0.66666667  0.66666667
 q=  -0.66666667  0.33333333 -0.66666667
 q=  -0.33333333 -0.66666667  0.66666667
 q=  -0.66666667 -0.66666667  0.33333333
 q=   0.66666667  0.66666667  0.33333333
 q=   0.33333333 -0.66666667 -0.66666667
 q=   0.66666667 -0.66666667 -0.33333333
  reading force constants from file rbbr.dyn8
  nqs=           24
 q=   0.50000000 -0.16666667  0.50000000
 q=  -0.50000000 -0.16666667 -0.50000000
 q=   0.50000000 -0.16666667 -0.50000000
 q=  -0.50000000 -0.16666667  0.50000000
 q=  -0.16666667  0.50000000 -0.50000000
 q=  -0.50000000  0.50000000 -0.16666667
 q=   0.50000000  0.16666667  0.50000000
 q=  -0.50000000  0.16666667  0.50000000
 q=   0.50000000  0.16666667 -0.50000000
 q=  -0.16666667  0.50000000  0.50000000
 q=   0.16666667  0.50000000 -0.50000000
 q=  -0.16666667 -0.50000000 -0.50000000
 q=   0.50000000 -0.50000000  0.16666667
 q=   0.50000000  0.50000000 -0.16666667
 q=  -0.50000000 -0.50000000 -0.16666667
 q=  -0.50000000  0.50000000  0.16666667
 q=   0.16666667 -0.50000000  0.50000000
 q=   0.16666667  0.50000000  0.50000000
 q=  -0.50000000  0.16666667 -0.50000000
 q=  -0.16666667 -0.50000000  0.50000000
 q=  -0.50000000 -0.50000000  0.16666667
 q=   0.50000000  0.50000000  0.16666667
 q=   0.16666667 -0.50000000 -0.50000000
 q=   0.50000000 -0.50000000 -0.16666667
  reading force constants from file rbbr.dyn9
  nqs=           12
 q=   0.33333333  0.00000000  0.33333333
 q=  -0.33333333  0.00000000  0.33333333
 q=   0.33333333  0.00000000 -0.33333333
 q=  -0.33333333  0.00000000 -0.33333333
 q=   0.00000000  0.33333333 -0.33333333
 q=  -0.33333333  0.33333333  0.00000000
 q=   0.00000000  0.33333333  0.33333333
 q=   0.00000000 -0.33333333 -0.33333333
 q=   0.33333333 -0.33333333  0.00000000
 q=   0.33333333  0.33333333  0.00000000
 q=  -0.33333333 -0.33333333  0.00000000
 q=   0.00000000 -0.33333333  0.33333333
  reading force constants from file rbbr.dyn10
  nqs=            6
 q=   0.00000000  0.66666667  0.00000000
 q=   0.66666667  0.00000000  0.00000000
 q=   0.00000000  0.00000000  0.66666667
 q=   0.00000000 -0.66666667  0.00000000
 q=  -0.66666667  0.00000000  0.00000000
 q=   0.00000000  0.00000000 -0.66666667
  reading force constants from file rbbr.dyn11
  nqs=           24
 q=   0.83333333 -0.16666667  0.83333333
 q=  -0.83333333 -0.16666667  0.83333333
 q=   0.83333333 -0.16666667 -0.83333333
 q=  -0.83333333 -0.16666667 -0.83333333
 q=  -0.16666667  0.83333333 -0.83333333
 q=  -0.83333333  0.83333333 -0.16666667
 q=   0.83333333  0.16666667  0.83333333
 q=  -0.83333333  0.16666667  0.83333333
 q=   0.83333333  0.16666667 -0.83333333
 q=  -0.16666667  0.83333333  0.83333333
 q=   0.16666667  0.83333333 -0.83333333
 q=  -0.16666667 -0.83333333 -0.83333333
 q=   0.83333333 -0.83333333  0.16666667
 q=   0.83333333  0.83333333 -0.16666667
 q=  -0.83333333 -0.83333333 -0.16666667
 q=  -0.83333333  0.83333333  0.16666667
 q=   0.16666667 -0.83333333  0.83333333
 q=   0.16666667  0.83333333  0.83333333
 q=  -0.83333333  0.16666667 -0.83333333
 q=  -0.16666667 -0.83333333  0.83333333
 q=  -0.83333333 -0.83333333  0.16666667
 q=   0.83333333  0.83333333  0.16666667
 q=   0.16666667 -0.83333333 -0.83333333
 q=   0.83333333 -0.83333333 -0.16666667
  reading force constants from file rbbr.dyn12
  nqs=           12
 q=   0.66666667  0.00000000  0.66666667
 q=  -0.66666667  0.00000000  0.66666667
 q=  -0.66666667  0.00000000 -0.66666667
 q=   0.66666667  0.00000000 -0.66666667
 q=   0.00000000  0.66666667 -0.66666667
 q=  -0.66666667  0.66666667  0.00000000
 q=   0.00000000  0.66666667  0.66666667
 q=   0.00000000 -0.66666667 -0.66666667
 q=   0.66666667 -0.66666667  0.00000000
 q=   0.66666667  0.66666667  0.00000000
 q=  -0.66666667 -0.66666667  0.00000000
 q=   0.00000000 -0.66666667  0.66666667
  reading force constants from file rbbr.dyn13
  nqs=            3
 q=   0.00000000 -1.00000000  0.00000000
 q=  -1.00000000  0.00000000  0.00000000
 q=   0.00000000  0.00000000  1.00000000
  reading force constants from file rbbr.dyn14
  nqs=           24
 q=   0.66666667 -0.33333333  1.00000000
 q=   1.00000000  0.33333333  0.66666667
 q=   0.66666667  0.33333333  1.00000000
 q=  -1.00000000 -0.33333333  0.66666667
 q=  -1.00000000 -0.33333333 -0.66666667
 q=  -0.66666667 -0.33333333 -1.00000000
 q=   1.00000000  0.33333333 -0.66666667
 q=  -0.66666667  0.33333333  1.00000000
 q=  -0.33333333  1.00000000  0.66666667
 q=   0.33333333  1.00000000 -0.66666667
 q=  -0.33333333 -1.00000000 -0.66666667
 q=   1.00000000 -0.66666667  0.33333333
 q=   1.00000000  0.66666667 -0.33333333
 q=  -0.33333333  0.66666667 -1.00000000
 q=  -1.00000000 -0.66666667 -0.33333333
 q=  -1.00000000  0.66666667  0.33333333
 q=   0.33333333 -0.66666667  1.00000000
 q=   0.33333333 -1.00000000  0.66666667
 q=   0.66666667 -1.00000000  0.33333333
 q=   0.33333333  0.66666667  1.00000000
 q=  -0.33333333 -0.66666667 -1.00000000
 q=  -0.66666667 -1.00000000  0.33333333
 q=   0.66666667  1.00000000 -0.33333333
 q=  -0.66666667 -1.00000000 -0.33333333
  reading force constants from file rbbr.dyn15
  nqs=           24
 q=   0.50000000 -0.16666667  0.83333333
 q=   0.83333333  0.16666667  0.50000000
 q=   0.50000000  0.16666667  0.83333333
 q=  -0.83333333 -0.16666667  0.50000000
 q=  -0.83333333 -0.16666667 -0.50000000
 q=  -0.50000000 -0.16666667 -0.83333333
 q=   0.83333333 -0.16666667  0.50000000
 q=  -0.50000000 -0.16666667  0.83333333
 q=  -0.83333333  0.16666667  0.50000000
 q=   0.83333333  0.16666667 -0.50000000
 q=   0.83333333 -0.16666667 -0.50000000
 q=   0.50000000  0.16666667 -0.83333333
 q=  -0.50000000  0.16666667  0.83333333
 q=  -0.50000000  0.16666667 -0.83333333
 q=  -0.83333333  0.16666667 -0.50000000
 q=   0.83333333 -0.50000000  0.16666667
 q=   0.83333333  0.50000000 -0.16666667
 q=  -0.83333333 -0.50000000 -0.16666667
 q=  -0.83333333  0.50000000  0.16666667
 q=   0.16666667 -0.50000000  0.83333333
 q=  -0.16666667  0.50000000  0.83333333
 q=   0.16666667  0.50000000 -0.83333333
 q=  -0.16666667 -0.50000000 -0.83333333
 q=  -0.50000000  0.83333333  0.16666667
  reading force constants from file rbbr.dyn16
  nqs=           12
 q=  -0.33333333 -1.00000000  0.00000000
 q=   0.00000000 -1.00000000 -0.33333333
 q=   0.00000000 -1.00000000  0.33333333
 q=   0.33333333 -1.00000000  0.00000000
 q=  -1.00000000  0.00000000 -0.33333333
 q=   1.00000000  0.00000000  0.33333333
 q=   0.00000000  0.33333333  1.00000000
 q=   0.00000000 -0.33333333 -1.00000000
 q=  -1.00000000 -0.33333333  0.00000000
 q=   1.00000000  0.33333333  0.00000000
 q=  -0.33333333  0.00000000  1.00000000
 q=   0.33333333  0.00000000  1.00000000

      q-space grid ok, #points =  216

      fft-check success (sum of imaginary terms < 10^-12)
 
     Q2R          :      0.04s CPU      0.69s WALL

 
   This run was terminated on:   0: 9:46  21Mar2022            

=------------------------------------------------------------------------------=
   JOB DONE.
=------------------------------------------------------------------------------=
