# epsilon and Z* of atoms 1 2
   5.62041162    0.00000000    0.00000000    0.00000000    5.62041162    0.00000000    0.00000000    0.00000000    1.35381889 
  -1.86842496   -0.00000000    0.00000000   -0.00000000   -1.86842496    0.00000000    0.00000000    0.00000000   -0.14991753 
   0.93421248    0.00000000    0.00000000    0.00000000    0.93421248    0.00000000    0.00000000    0.00000000    0.07495877 
