   3  192
1 1
    21.441550578158445    -0.000000000000000     0.000000000000001
    -0.000000000000000    21.441550578158438    -0.000000000000002
     0.000000000000001    -0.000000000000002    25.293725858075710
1 2
    -0.535646009166334    -1.072008647370734     0.000000000000000
     1.072008647370734    -0.252834492463670     0.000000000000000
    -0.000000000000000     0.000000000000000     0.456765030880994
1 3
    -0.155324650615506    -0.001923850208125     0.000000000000000
     0.001923850208124     0.064217699132016    -0.000000000000000
     0.000000000000000    -0.000000000000000    -0.042829628671870
1 4
    -0.021019240386827    -0.008344426087150     0.000000000000000
     0.008344426087150     0.008561332701204     0.000000000000000
     0.000000000000000     0.000000000000000     0.007516048675523
1 5
    -0.015399931706906    -0.000000000000000     0.000000000000000
    -0.000000000000000     0.006160483915625     0.000000000000000
     0.000000000000000     0.000000000000000     0.005662529374975
1 6
    -0.021019240386827     0.008344426087150     0.000000000000000
    -0.008344426087150     0.008561332701204     0.000000000000000
     0.000000000000000     0.000000000000000     0.007516048675523
1 7
    -0.155324650615506     0.001923850208124     0.000000000000000
    -0.001923850208125     0.064217699132016    -0.000000000000000
     0.000000000000000    -0.000000000000000    -0.042829628671870
1 8
    -0.535646009166334     1.072008647370734    -0.000000000000000
    -1.072008647370734    -0.252834492463670     0.000000000000000
     0.000000000000000     0.000000000000000     0.456765030880994
1 9
    -0.323537371639336    -0.949547668397077     0.000000000000000
     1.194469626344390    -0.464943129990668     0.000000000000000
    -0.000000000000000     0.000000000000000     0.456765030880994
1 10
    -0.323537371639336     0.949547668397077    -0.000000000000000
    -1.194469626344390    -0.464943129990668     0.000000000000000
     0.000000000000000     0.000000000000000     0.456765030880994
1 11
    -0.033576626550024     0.083623981831089    -0.000000000000000
     0.083623981831089    -0.130137283391799     0.000000000000000
    -0.000000000000000     0.000000000000000    -0.015985510571939
1 12
    -0.011322324435590    -0.007040195523205     0.000000000000000
    -0.001206925134721     0.002832761025678     0.000000000000000
     0.000000000000000     0.000000000000000     0.002706999488578
1 13
    -0.009832717126760    -0.002104746486764     0.000000000000000
    -0.000387130612374     0.001340358048091     0.000000000000000
     0.000000000000000     0.000000000000000     0.005110535081285
1 14
    -0.009832717126760     0.002104746486764     0.000000000000000
     0.000387130612374     0.001340358048091     0.000000000000000
     0.000000000000000     0.000000000000000     0.005110535081285
1 15
    -0.011322324435590     0.007040195523205     0.000000000000000
     0.001206925134721     0.002832761025678     0.000000000000000
     0.000000000000000     0.000000000000000     0.002706999488578
1 16
    -0.033576626550024    -0.083623981831089     0.000000000000000
    -0.083623981831089    -0.130137283391799     0.000000000000000
     0.000000000000000     0.000000000000000    -0.015985510571939
1 17
     0.009332111695136     0.093140775835816    -0.000000000000000
     0.096988476252065    -0.100439063178625     0.000000000000000
    -0.000000000000000     0.000000000000000    -0.042829628671870
1 18
    -0.178417611812686    -0.000000000000000     0.000000000000000
    -0.000000000000000     0.014703701870864     0.000000000000000
     0.000000000000000     0.000000000000000    -0.015985510571939
1 19
     0.009332111695136    -0.093140775835816     0.000000000000000
    -0.096988476252065    -0.100439063178625     0.000000000000000
     0.000000000000000     0.000000000000000    -0.042829628671870
1 20
    -0.004277118338558    -0.005274476771338     0.000000000000000
    -0.011107747159822    -0.004212445071353     0.000000000000000
     0.000000000000000     0.000000000000000     0.002706999488578
1 21
    -0.009091589436534    -0.007546221507891     0.000000000000000
    -0.007546221507891    -0.000377963398643     0.000000000000000
     0.000000000000000     0.000000000000000     0.005398795837617
1 22
    -0.007396744134016    -0.000000000000000     0.000000000000000
    -0.000000000000000    -0.001717543717501     0.000000000000000
     0.000000000000000     0.000000000000000     0.003261762984409
1 23
    -0.009091589436534     0.007546221507891     0.000000000000000
     0.007546221507891    -0.000377963398643     0.000000000000000
     0.000000000000000     0.000000000000000     0.005398795837617
1 24
    -0.004277118338558     0.005274476771338     0.000000000000000
     0.011107747159822    -0.004212445071353     0.000000000000000
     0.000000000000000     0.000000000000000     0.002706999488578
1 25
     0.001166189429196     0.004464337789218     0.000000000000000
     0.021153189963519    -0.013624097114820     0.000000000000000
     0.000000000000000     0.000000000000000     0.007516048675523
1 26
     0.002865097659281     0.001150916442376     0.000000000000000
     0.006984186830860    -0.011354661069192     0.000000000000000
     0.000000000000000     0.000000000000000     0.002706999488578
1 27
     0.002865097659281    -0.001150916442376     0.000000000000000
    -0.006984186830860    -0.011354661069192     0.000000000000000
     0.000000000000000     0.000000000000000     0.002706999488578
1 28
     0.001166189429196    -0.004464337789218     0.000000000000000
    -0.021153189963519    -0.013624097114820     0.000000000000000
     0.000000000000000     0.000000000000000     0.007516048675523
1 29
    -0.002531925181103    -0.004602244807497     0.000000000000000
    -0.006319860681887    -0.005960433897567     0.000000000000000
     0.000000000000000     0.000000000000000     0.005110535081285
1 30
    -0.003137343821630    -0.002459165916942     0.000000000000000
    -0.002459165916942    -0.005976944029887     0.000000000000000
     0.000000000000000     0.000000000000000     0.003261762984409
1 31
    -0.003137343821630     0.002459165916942     0.000000000000000
     0.002459165916942    -0.005976944029887     0.000000000000000
     0.000000000000000     0.000000000000000     0.003261762984409
1 32
    -0.002531925181103     0.004602244807497     0.000000000000000
     0.006319860681887    -0.005960433897567     0.000000000000000
     0.000000000000000     0.000000000000000     0.005110535081285
1 33
     0.000770380009992     0.009335933822631     0.000000000000000
     0.009335933822631    -0.010009827801273     0.000000000000000
     0.000000000000000     0.000000000000000     0.005662529374975
1 34
    -0.000373896310141     0.003356306257928     0.000000000000000
     0.005073922132318    -0.008118462768528     0.000000000000000
     0.000000000000000     0.000000000000000     0.005110535081285
1 35
     0.003978849620302    -0.000000000000000     0.000000000000000
    -0.000000000000000    -0.013448402455479     0.000000000000000
     0.000000000000000     0.000000000000000     0.005398795837617
1 36
    -0.000373896310141    -0.003356306257928     0.000000000000000
    -0.005073922132318    -0.008118462768528     0.000000000000000
     0.000000000000000     0.000000000000000     0.005110535081285
1 37
     0.000770380009992    -0.009335933822632     0.000000000000000
    -0.009335933822632    -0.010009827801273     0.000000000000000
     0.000000000000000     0.000000000000000     0.005662529374975
1 38
    -0.000373896310141    -0.005073922132318     0.000000000000000
    -0.003356306257928    -0.008118462768528     0.000000000000000
     0.000000000000000     0.000000000000000     0.005110535081285
1 39
     0.003978849620302    -0.000000000000000     0.000000000000000
    -0.000000000000000    -0.013448402455479     0.000000000000000
     0.000000000000000     0.000000000000000     0.005398795837617
1 40
    -0.000373896310141     0.005073922132318     0.000000000000000
     0.003356306257928    -0.008118462768528     0.000000000000000
     0.000000000000000     0.000000000000000     0.005110535081285
1 41
     0.001166189429196     0.021153189963519     0.000000000000000
     0.004464337789218    -0.013624097114820     0.000000000000000
     0.000000000000000     0.000000000000000     0.007516048675523
1 42
    -0.002531925181103     0.006319860681887     0.000000000000000
     0.004602244807497    -0.005960433897567     0.000000000000000
     0.000000000000000     0.000000000000000     0.005110535081285
1 43
    -0.003137343821630     0.002459165916942     0.000000000000000
     0.002459165916942    -0.005976944029887     0.000000000000000
     0.000000000000000     0.000000000000000     0.003261762984409
1 44
    -0.003137343821630    -0.002459165916942     0.000000000000000
    -0.002459165916942    -0.005976944029887     0.000000000000000
     0.000000000000000     0.000000000000000     0.003261762984409
1 45
    -0.002531925181103    -0.006319860681887     0.000000000000000
    -0.004602244807497    -0.005960433897567     0.000000000000000
     0.000000000000000     0.000000000000000     0.005110535081285
1 46
     0.001166189429196    -0.021153189963519     0.000000000000000
    -0.004464337789218    -0.013624097114820     0.000000000000000
     0.000000000000000     0.000000000000000     0.007516048675523
1 47
     0.002865097659281    -0.006984186830860     0.000000000000000
    -0.001150916442376    -0.011354661069192     0.000000000000000
     0.000000000000000     0.000000000000000     0.002706999488578
1 48
     0.002865097659281     0.006984186830860     0.000000000000000
     0.001150916442376    -0.011354661069192     0.000000000000000
     0.000000000000000     0.000000000000000     0.002706999488578
1 49
     0.009332111695136     0.096988476252065    -0.000000000000000
     0.093140775835816    -0.100439063178625     0.000000000000000
    -0.000000000000000     0.000000000000000    -0.042829628671870
1 50
    -0.004277118338558     0.011107747159822     0.000000000000000
     0.005274476771338    -0.004212445071353     0.000000000000000
     0.000000000000000     0.000000000000000     0.002706999488578
1 51
    -0.009091589436534     0.007546221507891     0.000000000000000
     0.007546221507891    -0.000377963398643     0.000000000000000
     0.000000000000000     0.000000000000000     0.005398795837617
1 52
    -0.007396744134016    -0.000000000000000     0.000000000000000
    -0.000000000000000    -0.001717543717501     0.000000000000000
     0.000000000000000     0.000000000000000     0.003261762984409
1 53
    -0.009091589436534    -0.007546221507891     0.000000000000000
    -0.007546221507891    -0.000377963398643     0.000000000000000
     0.000000000000000     0.000000000000000     0.005398795837617
1 54
    -0.004277118338558    -0.011107747159822     0.000000000000000
    -0.005274476771338    -0.004212445071353     0.000000000000000
     0.000000000000000     0.000000000000000     0.002706999488578
1 55
     0.009332111695136    -0.096988476252065     0.000000000000000
    -0.093140775835816    -0.100439063178625     0.000000000000000
     0.000000000000000     0.000000000000000    -0.042829628671870
1 56
    -0.178417611812686    -0.000000000000000     0.000000000000000
    -0.000000000000000     0.014703701870864     0.000000000000000
     0.000000000000000     0.000000000000000    -0.015985510571939
1 57
    -0.323537371639336     1.194469626344390    -0.000000000000000
    -0.949547668397077    -0.464943129990668     0.000000000000000
     0.000000000000000     0.000000000000000     0.456765030880994
1 58
    -0.033576626550024    -0.083623981831089     0.000000000000000
    -0.083623981831089    -0.130137283391799     0.000000000000000
     0.000000000000000     0.000000000000000    -0.015985510571939
1 59
    -0.011322324435590     0.001206925134721     0.000000000000000
     0.007040195523205     0.002832761025678     0.000000000000000
     0.000000000000000     0.000000000000000     0.002706999488578
1 60
    -0.009832717126760     0.000387130612374     0.000000000000000
     0.002104746486764     0.001340358048091     0.000000000000000
     0.000000000000000     0.000000000000000     0.005110535081285
1 61
    -0.009832717126760    -0.000387130612374     0.000000000000000
    -0.002104746486764     0.001340358048091     0.000000000000000
     0.000000000000000     0.000000000000000     0.005110535081285
1 62
    -0.011322324435590    -0.001206925134721     0.000000000000000
    -0.007040195523205     0.002832761025678     0.000000000000000
     0.000000000000000     0.000000000000000     0.002706999488578
1 63
    -0.033576626550024     0.083623981831089    -0.000000000000000
     0.083623981831089    -0.130137283391799     0.000000000000000
    -0.000000000000000     0.000000000000000    -0.015985510571939
1 64
    -0.323537371639336    -1.194469626344390     0.000000000000000
     0.949547668397077    -0.464943129990668     0.000000000000000
    -0.000000000000000     0.000000000000000     0.456765030880994
1 65
    -1.259969384489299    -0.000000000000000    -0.000000000000000
     0.000000000000000    -4.842341532768834     3.450409227745134
    -0.000000000000000     3.425371005261270    -4.307200496435113
1 66
    -0.067326124961625     0.247613874259695    -0.049586337931376
     0.247613874259695     0.218593748956217     0.028628685552808
    -0.137213338045471     0.079220157656960    -0.199906956101401
1 67
     0.014409006932746    -0.019725373619158     0.006357504439929
    -0.007959264024130     0.002152543747838    -0.006019774180731
    -0.017724405195010     0.000022719863693     0.001581312636497
1 68
     0.007927468051197    -0.001171772459712     0.001016232735631
    -0.003571423985238    -0.000588828601983    -0.000735085108047
     0.001036215062979    -0.002183101774045    -0.002573809244570
1 69
     0.006330278427013    -0.000000000000000     0.000000000000000
    -0.000000000000000    -0.000285818561131    -0.000089423853981
    -0.000000000000000     0.000019186576381    -0.002115901890333
1 70
     0.007927468051197     0.001171772459712    -0.001016232735631
     0.003571423985238    -0.000588828601983    -0.000735085108047
    -0.001036215062979    -0.002183101774045    -0.002573809244570
1 71
     0.014409006932746     0.019725373619158    -0.006357504439928
     0.007959264024130     0.002152543747838    -0.006019774180731
     0.017724405195010     0.000022719863693     0.001581312636497
1 72
    -0.067326124961625    -0.247613874259695     0.049586337931376
    -0.247613874259695     0.218593748956217     0.028628685552808
     0.137213338045471     0.079220157656960    -0.199906956101401
1 73
    -3.946748495698951     1.551212643109956     2.988142044679533
     1.551212643109956    -2.155562421559182    -1.725204613872567
     2.966458307942900    -1.712685502630634    -4.307200496435113
1 74
    -3.946748495698951    -1.551212643109956    -2.988142044679534
    -1.551212643109956    -2.155562421559182    -1.725204613872567
    -2.966458307942900    -1.712685502630634    -4.307200496435113
1 75
    -0.050413205633919     0.104501322752411     0.036981288875197
    -0.047912086369440    -0.039416353719499     0.002408475169681
    -0.044692963931725     0.022490094581604    -0.053685698451370
1 76
    -0.001687747711623     0.001063770605324     0.001259664110480
    -0.004560469780667    -0.003213695814327     0.005050966194677
     0.001553845633683     0.000194392318321    -0.003116968464758
1 77
     0.006404397908360     0.000708684261585    -0.000609611801317
    -0.000421733647984    -0.002179810877964     0.000118049646028
     0.001371867985242     0.000204824160457    -0.002194032950775
1 78
     0.006404397908360    -0.000708684261585     0.000609611801317
     0.000421733647984    -0.002179810877964     0.000118049646028
    -0.001371867985242     0.000204824160457    -0.002194032950775
1 79
    -0.001687747711623    -0.001063770605324    -0.001259664110480
     0.004560469780667    -0.003213695814327     0.005050966194677
    -0.001553845633683     0.000194392318321    -0.003116968464758
1 80
    -0.050413205633919    -0.104501322752411    -0.036981288875197
     0.047912086369440    -0.039416353719499     0.002408475169681
     0.044692963931725     0.022490094581604    -0.053685698451370
1 81
    -0.017661708553897     0.066821172024954    -0.020576445118926
    -0.085592237096896    -0.072167850799521     0.030822498045771
     0.002869488724679    -0.049950289426097    -0.053685698451370
1 82
     0.361553685915137    -0.000000000000000     0.000000000000000
    -0.000000000000000    -0.210286061920546    -0.057257371105616
    -0.000000000000000    -0.158440315313919    -0.199906956101401
1 83
    -0.017661708553897    -0.066821172024954     0.020576445118926
     0.085592237096896    -0.072167850799521     0.030822498045771
    -0.002869488724679    -0.049950289426097    -0.053685698451370
1 84
     0.006755418054696     0.004180906545678    -0.002344225442399
     0.004180906545678     0.001927723015488    -0.001353439190210
     0.003625221713369     0.002093022732086    -0.006671371281109
1 85
     0.005967210323326     0.002540589477806     0.000746510442024
     0.001610276935849    -0.002043802838702     0.000507277204328
     0.002100086420472     0.001039328004862    -0.001894695385874
1 86
     0.004058166709448    -0.000000000000000     0.000000000000000
    -0.000000000000000    -0.001044426828263     0.000152065491474
    -0.000000000000000     0.000121881740392    -0.001756433078915
1 87
     0.005967210323326    -0.002540589477806    -0.000746510442024
    -0.001610276935849    -0.002043802838702     0.000507277204328
    -0.002100086420472     0.001039328004862    -0.001894695385874
1 88
     0.006755418054696    -0.004180906545678     0.002344225442399
    -0.004180906545678     0.001927723015488    -0.001353439190210
    -0.003625221713369     0.002093022732086    -0.006671371281109
1 89
    -0.004346323946271     0.003025540075932    -0.005004097093486
    -0.002598700310059    -0.000555119579679    -0.001434581977427
    -0.000945271502808     0.001248473633169    -0.003116968464758
1 90
    -0.006771140202762    -0.004269099626031     0.002034525145595
     0.007497009968996     0.023332690883346     0.008515647440016
     0.008842526618376    -0.015361145097694     0.001581312636497
1 91
    -0.006771140202762     0.004269099626031    -0.002034525145595
    -0.007497009968996     0.023332690883346     0.008515647440016
    -0.008842526618376    -0.015361145097694     0.001581312636497
1 92
    -0.004346323946271    -0.003025540075932     0.005004097093486
     0.002598700310059    -0.000555119579679    -0.001434581977427
     0.000945271502808     0.001248473633169    -0.003116968464758
1 93
     0.001756328332776     0.004041430786620     0.000812570166721
     0.004971743328576     0.002167079151849     0.000392858404819
     0.001950127665311     0.001299064187841    -0.001894695385874
1 94
     0.001591723001068     0.001318978211629    -0.000216188855507
     0.001318978211629     0.000068698149989    -0.000124816693923
     0.000061081601169     0.000035265478878    -0.001579995342423
1 95
     0.001591723001068    -0.001318978211629     0.000216188855507
    -0.001318978211629     0.000068698149989    -0.000124816693923
    -0.000061081601169     0.000035265478878    -0.001579995342423
1 96
     0.001756328332776    -0.004041430786620    -0.000812570166721
    -0.004971743328576     0.002167079151849     0.000392858404819
    -0.001950127665311     0.001299064187841    -0.001894695385874
1 97
     0.000090494579122    -0.003223600138789     0.000202571908291
    -0.004354018048358     0.004134092451275    -0.000586964129402
    -0.000863316918886     0.001085660445629    -0.002194032950775
1 98
    -0.000513618746921    -0.001302039749909     0.000128486009697
    -0.003701691275435     0.007852258196136     0.001247625919237
     0.001372514063880     0.001988939455347    -0.002573809244570
1 99
     0.000053717415729    -0.000000000000000     0.000000000000000
    -0.000000000000000     0.006771379187856     0.003219683465544
    -0.000000000000000     0.002956570355154    -0.000982770747077
1 100
    -0.000513618746921     0.001302039749909    -0.000128486009697
     0.003701691275435     0.007852258196136     0.001247625919237
    -0.001372514063880     0.001988939455347    -0.002573809244570
1 101
     0.000090494579122     0.003223600138789    -0.000202571908291
     0.004354018048358     0.004134092451275    -0.000586964129402
     0.000863316918886     0.001085660445629    -0.002194032950775
1 102
     0.000231221556165     0.002209487814422     0.000131692578656
     0.002209487814422     0.002782518325020    -0.000076032745737
     0.000105552683437    -0.000060940870196    -0.001756433078915
1 103
    -0.000692814275550    -0.000000000000000     0.000000000000000
    -0.000000000000000     0.002353235426607     0.000249633387845
    -0.000000000000000    -0.000070530957755    -0.001579995342423
1 104
     0.000231221556165    -0.002209487814422    -0.000131692578656
    -0.002209487814422     0.002782518325020    -0.000076032745737
    -0.000105552683437    -0.000060940870196    -0.001756433078915
1 105
    -0.000158011941888    -0.004210542741558    -0.000407039893027
    -0.003080124831989     0.004382598972284     0.000468914483374
     0.000508551066356    -0.001290484606087    -0.002194032950775
1 106
     0.001368205685905    -0.002864854032817     0.000077443329252
    -0.002864854032817     0.004676254179977     0.000044711926991
    -0.000016616062557    -0.000009593288190    -0.002115901890333
1 107
     0.001650329447480    -0.001103112098632    -0.000046636537946
    -0.001394829380917     0.005159068400774     0.000315495624828
     0.000297334121548     0.000255708869173    -0.001847553016072
1 108
     0.001650329447480     0.001103112098632     0.000046636537946
     0.001394829380917     0.005159068400774     0.000315495624828
    -0.000297334121548     0.000255708869173    -0.001847553016072
1 109
     0.001368205685905     0.002864854032817    -0.000077443329252
     0.002864854032817     0.004676254179977     0.000044711926991
     0.000016616062557    -0.000009593288190    -0.002115901890333
1 110
    -0.000158011941888     0.004210542741558     0.000407039893027
     0.003080124831989     0.004382598972284     0.000468914483374
    -0.000508551066356    -0.001290484606087    -0.002194032950775
1 111
    -0.001838427429166     0.002896310121749     0.000066059724697
     0.001965997579792     0.005761834913790    -0.000900135609147
    -0.000149958755162    -0.002338392192703    -0.001894695385874
1 112
    -0.001838427429166    -0.002896310121749    -0.000066059724697
    -0.001965997579792     0.005761834913790    -0.000900135609147
     0.000149958755162    -0.002338392192703    -0.001894695385874
1 113
    -0.001318093631031    -0.004347049897731    -0.003744432983007
     0.001277190488261    -0.003583349894919    -0.003616384217249
     0.000608574130875    -0.001442865951490    -0.003116968464758
1 114
     0.003594109869546    -0.006073289497910     0.001144718745328
    -0.003673637972384     0.003744529579669    -0.000512540811190
     0.002408729126860     0.000194162318698    -0.002573809244570
1 115
     0.003200243273222    -0.002289672545430     0.000249908956911
    -0.001997955263145     0.003609154575031    -0.000198136239020
     0.000370117437451     0.000129644468086    -0.001847553016072
1 116
     0.003459644567786    -0.000000000000000     0.000000000000000
    -0.000000000000000     0.003459644567786     0.000000000000000
    -0.000000000000000     0.000000000000000    -0.001610984033062
1 117
     0.003200243273222     0.002289672545430    -0.000249908956911
     0.001997955263145     0.003609154575031    -0.000198136239020
    -0.000370117437451     0.000129644468086    -0.001847553016072
1 118
     0.003594109869546     0.006073289497910    -0.001144718745328
     0.003673637972384     0.003744529579669    -0.000512540811190
    -0.002408729126860     0.000194162318698    -0.002573809244570
1 119
    -0.001318093631031     0.004347049897731     0.003744432983007
    -0.001277190488261    -0.003583349894919    -0.003616384217249
    -0.000608574130875    -0.001442865951490    -0.003116968464758
1 120
    -0.000486124504116    -0.000000000000000     0.000000000000000
    -0.000000000000000     0.009169265574300     0.002706878380421
    -0.000000000000000    -0.004186045464171    -0.006671371281109
1 121
    -0.066669424842311    -0.057297618905411     0.016404843756271
     0.095115790216440    -0.023160134511107    -0.033230973215451
    -0.041823475207046     0.027460194844493    -0.053685698451370
1 122
     0.017204459290892    -0.006345308852648     0.008392029585523
    -0.018111418447675    -0.000642908610308    -0.002495873259285
    -0.008881878576634     0.015338425234001     0.001581312636497
1 123
     0.005091963744824    -0.002908832874347     0.002788327673306
    -0.002908832874347     0.001733132858761    -0.001609841732772
     0.002560465035639    -0.001478285177577    -0.000982770747077
1 124
     0.005363524051678    -0.000748984523371     0.000296545494857
    -0.001040701805656     0.001445873796576    -0.000117359385808
     0.000072783315903    -0.000385353337259    -0.001847553016072
1 125
     0.005363524051678     0.000748984523371    -0.000296545494857
     0.001040701805656     0.001445873796576    -0.000117359385808
    -0.000072783315903    -0.000385353337259    -0.001847553016072
1 126
     0.005091963744824     0.002908832874347    -0.002788327673306
     0.002908832874347     0.001733132858761    -0.001609841732772
    -0.002560465035639    -0.001478285177577    -0.000982770747077
1 127
     0.017204459290892     0.006345308852648    -0.008392029585523
     0.018111418447675    -0.000642908610308    -0.002495873259285
     0.008881878576634     0.015338425234001     0.001581312636497
1 128
    -0.066669424842311     0.057297618905411    -0.016404843756271
    -0.095115790216440    -0.023160134511107    -0.033230973215451
     0.041823475207046     0.027460194844493    -0.053685698451370
1 129
    -1.259969384489299     0.000000000000000     0.000000000000000
     0.000000000000000    -4.842341532768835    -3.450409227745133
     0.000000000000000    -3.425371005261270    -4.307200496435113
1 130
    -0.067326124961625     0.247613874259695     0.049586337931376
     0.247613874259695     0.218593748956217    -0.028628685552808
     0.137213338045471    -0.079220157656960    -0.199906956101401
1 131
     0.014409006932746    -0.019725373619158    -0.006357504439928
    -0.007959264024130     0.002152543747838     0.006019774180731
     0.017724405195010    -0.000022719863693     0.001581312636497
1 132
     0.007927468051197    -0.001171772459712    -0.001016232735631
    -0.003571423985238    -0.000588828601983     0.000735085108047
    -0.001036215062979     0.002183101774045    -0.002573809244570
1 133
     0.006330278427013    -0.000000000000000     0.000000000000000
    -0.000000000000000    -0.000285818561131     0.000089423853981
    -0.000000000000000    -0.000019186576380    -0.002115901890333
1 134
     0.007927468051197     0.001171772459712     0.001016232735631
     0.003571423985238    -0.000588828601983     0.000735085108047
     0.001036215062979     0.002183101774045    -0.002573809244570
1 135
     0.014409006932746     0.019725373619158     0.006357504439929
     0.007959264024130     0.002152543747838     0.006019774180731
    -0.017724405195010    -0.000022719863693     0.001581312636497
1 136
    -0.067326124961625    -0.247613874259695    -0.049586337931376
    -0.247613874259695     0.218593748956217    -0.028628685552808
    -0.137213338045471    -0.079220157656960    -0.199906956101401
1 137
    -3.946748495698951     1.551212643109956    -2.988142044679534
     1.551212643109956    -2.155562421559183     1.725204613872568
    -2.966458307942900     1.712685502630635    -4.307200496435113
1 138
    -3.946748495698950    -1.551212643109956     2.988142044679533
    -1.551212643109956    -2.155562421559183     1.725204613872567
     2.966458307942899     1.712685502630635    -4.307200496435113
1 139
    -0.050413205633919     0.104501322752411    -0.036981288875197
    -0.047912086369440    -0.039416353719499    -0.002408475169681
     0.044692963931725    -0.022490094581604    -0.053685698451370
1 140
    -0.001687747711623     0.001063770605324    -0.001259664110480
    -0.004560469780667    -0.003213695814327    -0.005050966194677
    -0.001553845633683    -0.000194392318321    -0.003116968464758
1 141
     0.006404397908360     0.000708684261585     0.000609611801317
    -0.000421733647984    -0.002179810877964    -0.000118049646028
    -0.001371867985242    -0.000204824160457    -0.002194032950775
1 142
     0.006404397908360    -0.000708684261585    -0.000609611801317
     0.000421733647984    -0.002179810877964    -0.000118049646028
     0.001371867985242    -0.000204824160457    -0.002194032950775
1 143
    -0.001687747711623    -0.001063770605324     0.001259664110480
     0.004560469780667    -0.003213695814327    -0.005050966194677
     0.001553845633683    -0.000194392318321    -0.003116968464758
1 144
    -0.050413205633919    -0.104501322752411     0.036981288875197
     0.047912086369440    -0.039416353719499    -0.002408475169681
    -0.044692963931725    -0.022490094581604    -0.053685698451370
1 145
    -0.017661708553897     0.066821172024954     0.020576445118926
    -0.085592237096896    -0.072167850799521    -0.030822498045771
    -0.002869488724679     0.049950289426097    -0.053685698451370
1 146
     0.361553685915137    -0.000000000000000    -0.000000000000000