192  
3    

1    
  0.0077500836276309   0.0000000000000000   0.0063195097725004
  -0.1661738300   -0.0005177500   -0.1598534300
   0.0043446200    0.0083714500   -0.0028639000
   0.0012133900    0.0000122900    0.0002660200
   0.0001638500    0.0000645000   -0.0000570300
   0.0001193300   -0.0000001200   -0.0000452900
   0.0001619500   -0.0000648300   -0.0000569200
   0.0011940100   -0.0000175100    0.0002563900
   0.0039607900   -0.0082463100   -0.0029277000
   0.0024662200    0.0074175700   -0.0028666100
   0.0025484200   -0.0073023200   -0.0029257700
   0.0002590500   -0.0006550000    0.0000916800
   0.0000879500    0.0000546800   -0.0000263900
   0.0000760100    0.0000164000   -0.0000418200
   0.0000763300   -0.0000162700   -0.0000417400
   0.0000874700   -0.0000544000   -0.0000268000
   0.0002612600    0.0006411900    0.0000913500
  -0.0000738100   -0.0007205400    0.0002585700
   0.0013828100   -0.0000090600    0.0000915500
  -0.0000708300    0.0007232500    0.0002637400
   0.0000331800    0.0000411700   -0.0000266400
   0.0000704800    0.0000584100   -0.0000437200
   0.0000573300   -0.0000000200   -0.0000300900
   0.0000703900   -0.0000585600   -0.0000434800
   0.0000331200   -0.0000405800   -0.0000265400
  -0.0000091200   -0.0000342500   -0.0000571100
  -0.0000213000   -0.0000088200   -0.0000271400
  -0.0000231600    0.0000090700   -0.0000260300
  -0.0000090200    0.0000349100   -0.0000568600
   0.0000193600    0.0000358700   -0.0000417900
   0.0000244400    0.0000190400   -0.0000301100
   0.0000241200   -0.0000190400   -0.0000300900
   0.0000198100   -0.0000355000   -0.0000417700
  -0.0000057900   -0.0000726100   -0.0000452300
   0.0000031400   -0.0000259400   -0.0000417400
  -0.0000308500   -0.0000000700   -0.0000436000
   0.0000026700    0.0000260800   -0.0000418100
  -0.0000061900    0.0000721000   -0.0000452800
   0.0000026800    0.0000390100   -0.0000417400
  -0.0000308600   -0.0000003400   -0.0000436000
   0.0000031200   -0.0000396300   -0.0000418100
  -0.0000084200   -0.0001642500   -0.0000571700
   0.0000200000   -0.0000488400   -0.0000418000
   0.0000241700   -0.0000189200   -0.0000300700
   0.0000244000    0.0000191500   -0.0000301200
   0.0000191800    0.0000491600   -0.0000417600
  -0.0000097100    0.0001636000   -0.0000567900
  -0.0000221700    0.0000538600   -0.0000268400
  -0.0000223200   -0.0000544500   -0.0000263400
  -0.0000723700   -0.0007548700    0.0002634000
   0.0000337100   -0.0000863900   -0.0000268300
   0.0000705700   -0.0000587300   -0.0000438100
   0.0000573300   -0.0000000500   -0.0000300900
   0.0000703200    0.0000582400   -0.0000433900
   0.0000326100    0.0000857800   -0.0000263400
  -0.0000722500    0.0007485800    0.0002589600
   0.0013827000   -0.0000039000    0.0000915100
   0.0025344800   -0.0092996800   -0.0028345500
   0.0002575500    0.0006535100    0.0000994100
   0.0000869500   -0.0000099300   -0.0000262800
   0.0000763100   -0.0000032300   -0.0000418300
   0.0000760500    0.0000028200   -0.0000417300
   0.0000884900    0.0000087400   -0.0000269000
   0.0002629000   -0.0006425900    0.0000837300
   0.0024777200    0.0092116100   -0.0029575500
   0.0097458400   -0.0219388600    0.0274655500
   0.0014013000   -0.0024304600    0.0016540700
   0.0000023400    0.0001538100   -0.0000594000
  -0.0000681100    0.0000230700    0.0000094200
  -0.0000490000   -0.0000000500    0.0000133400
  -0.0000549000    0.0000046800    0.0000254400
  -0.0002219600   -0.0001535300    0.0000403300
  -0.0003228300    0.0014148700    0.0008884000
   0.0118883100   -0.0012303400    0.0040923800
   0.0502383800    0.0233862500    0.0513293500
   0.0006799400   -0.0009459200    0.0000623200
   0.0000030800   -0.0000086600    0.0000113400
  -0.0000583100   -0.0000067000    0.0000197200
  -0.0000410500    0.0000042900    0.0000101800
   0.0000232800    0.0000068400    0.0000299200
   0.0001193500    0.0006615800    0.0006302700
   0.0001255900   -0.0002066500    0.0004932000
  -0.0027909300    0.0009966200    0.0012667300
   0.0001596900    0.0008263600    0.0001919900
  -0.0000752300   -0.0000458800    0.0000622500
  -0.0000596600   -0.0000262400    0.0000061600
  -0.0000313600   -0.0000008500    0.0000122300
  -0.0000329200    0.0000131400    0.0000177600
  -0.0000308100    0.0000202400    0.0000260100
   0.0000397600   -0.0000316900    0.0000597400
  -0.0000027000    0.0001306400   -0.0000249300
   0.0001086500    0.0000647000    0.0000075000
   0.0000275800    0.0000151800   -0.0000183600
  -0.0000258400   -0.0000395400    0.0000068100
  -0.0000126300   -0.0000104000    0.0000128300
  -0.0000118500    0.0000100800    0.0000094900
  -0.0000013500    0.0000230900    0.0000192700
   0.0000046800    0.0000181800    0.0000122100
  -0.0000047500   -0.0000025600    0.0000165800
  -0.0000004500   -0.0000186700    0.0000062400
   0.0000127800   -0.0000228500    0.0000183100
  -0.0000060300   -0.0000318400    0.0000154200
  -0.0000023300   -0.0000168000    0.0000112200
   0.0000054300    0.0000004500    0.0000100700
  -0.0000010700    0.0000174500    0.0000132800
  -0.0000020000    0.0000409400    0.0000181200
  -0.0000105600    0.0000222500    0.0000138100
  -0.0000146600    0.0000069900    0.0000131000
  -0.0000108900   -0.0000101500    0.0000123700
  -0.0000105100   -0.0000220700    0.0000151600
   0.0000045500   -0.0000245600    0.0000117900
   0.0000153100   -0.0000075300    0.0000125800
   0.0000132100    0.0000373600    0.0000134400
   0.0000057100    0.0000428300    0.0000494400
  -0.0000432900    0.0000457500    0.0000086000
  -0.0000271900    0.0000169000    0.0000096300
  -0.0000268600   -0.0000000700    0.0000113900
  -0.0000223800   -0.0000185300    0.0000135300
  -0.0000125300   -0.0000483600    0.0000263500
   0.0000138400   -0.0000238500   -0.0000100800
   0.0000042400    0.0000250500    0.0000448900
   0.0007798100    0.0002684000    0.0002038600
  -0.0000769700   -0.0000492700   -0.0000746900
  -0.0000558400    0.0000320400   -0.0000141700
  -0.0000420300    0.0000083000    0.0000104100
  -0.0000409900   -0.0000032300    0.0000150400
  -0.0000235800   -0.0000133600    0.0000289900
  -0.0001889200   -0.0001445300    0.0000574800
   0.0002602300   -0.0006063800    0.0004704700
   0.0097835200    0.0213539900    0.0269806900
  -0.0003682800   -0.0014217200    0.0008794300
  -0.0002253200    0.0001525500    0.0000476900
  -0.0000547000   -0.0000047400    0.0000324100
  -0.0000489900    0.0000001700    0.0000229300
  -0.0000677200   -0.0000227100    0.0000168700
  -0.0000015500   -0.0001516600   -0.0000497000
   0.0013772400    0.0024093000    0.0016506400
   0.0484270800   -0.0223071700    0.0494357400
   0.0117937800    0.0011655800    0.0040398100
   0.0000972200   -0.0006737900    0.0006309300
   0.0000225500   -0.0000073600    0.0000386300
  -0.0000408600   -0.0000040800    0.0000174100
  -0.0000581600    0.0000068300    0.0000270600
   0.0000034900    0.0000103400    0.0000180200
   0.0006662200    0.0009580700    0.0000526300
   0.0001504700   -0.0008407000    0.0001772200
  -0.0028132800   -0.0010050600    0.0012689900
   0.0001121300    0.0001978000    0.0005140400
  -0.0000280000   -0.0000180700    0.0000314000
  -0.0000329900   -0.0000130900    0.0000272000
  -0.0000314100    0.0000007300    0.0000194000
  -0.0000592700    0.0000262200    0.0000157200
  -0.0000751400    0.0000452900    0.0000679100
   0.0000278600   -0.0000158300   -0.0000102900
   0.0001080700   -0.0000634000    0.0000135700
  -0.0000040700   -0.0001295200   -0.0000172300
   0.0000395000    0.0000309300    0.0000667800
  -0.0000011500   -0.0000230600    0.0000266500
  -0.0000119100   -0.0000099800    0.0000167400
  -0.0000125800    0.0000104800    0.0000201200
  -0.0000258900    0.0000394200    0.0000141100
  -0.0000062200    0.0000318300    0.0000249600
   0.0000127000    0.0000224500    0.0000257500
  -0.0000003900    0.0000187100    0.0000157400
  -0.0000044700    0.0000024400    0.0000235000
   0.0000048200   -0.0000181500    0.0000217900
  -0.0000009700   -0.0000176100    0.0000204200
   0.0000054100   -0.0000003800    0.0000195200
  -0.0000024600    0.0000166800    0.0000183300
   0.0000044300    0.0000245000    0.0000189900
  -0.0000107600    0.0000221300    0.0000224200
  -0.0000108800    0.0000102400    0.0000196400
  -0.0000146800   -0.0000068700    0.0000204000
  -0.0000103300   -0.0000221800    0.0000211600
  -0.0000018300   -0.0000406300    0.0000254700
   0.0000134400   -0.0000369900    0.0000209400
   0.0000151400    0.0000077900    0.0000198900
   0.0000143700    0.0000253100    0.0000010400
  -0.0000125800    0.0000482100    0.0000334800
  -0.0000224900    0.0000185600    0.0000231600
  -0.0000268700   -0.0000000600    0.0000185300
  -0.0000271300   -0.0000169100    0.0000191700
  -0.0000427300   -0.0000459300    0.0000157000
   0.0000070200   -0.0000427500    0.0000574800
   0.0000033600   -0.0000277700    0.0000489000
   0.0002445100    0.0006290000    0.0004718000
  -0.0001900600    0.0001475900    0.0000621400
  -0.0000229600    0.0000131000    0.0000361700
  -0.0000411200    0.0000034000    0.0000224000
  -0.0000419500   -0.0000081500    0.0000176500
  -0.0000554500   -0.0000317900   -0.0000070200
  -0.0000774700    0.0000463500   -0.0000660200
   0.0007824400   -0.0002726400    0.0002302500

65   
  0.0077500836276309   0.0000000000000000   0.0063195097725004
   0.0097451400   -0.0216188000    0.0270225100
   0.0002254600    0.0017444300    0.0001729100
  -0.0000708700   -0.0000223500   -0.0001860900
  -0.0000541600   -0.0000228800   -0.0000136900
  -0.0000482500    0.0000002500   -0.0000245800
  -0.0000668000    0.0000318000   -0.0000297700
  -0.0001495800    0.0000969400    0.0000889400
   0.0008462100   -0.0020955900    0.0022727800
   0.0004011400   -0.0005150600    0.0006228500
   0.0006247100    0.0009524800   -0.0000315100
  -0.0000795400   -0.0001244700   -0.0001173400
  -0.0000206400   -0.0000116800   -0.0000119100
  -0.0000392500   -0.0000071600   -0.0000256600
  -0.0000424200    0.0000086800   -0.0000267800
  -0.0000564200    0.0000323400   -0.0000516800
  -0.0001825900    0.0001557100    0.0000209700
   0.0000332000    0.0000123200   -0.0000236300
   0.0000030500   -0.0000165900    0.0000034300
  -0.0000138200    0.0000332400   -0.0000142900
  -0.0000201300   -0.0000247600   -0.0000030100
  -0.0000227400   -0.0000142400   -0.0000233700
  -0.0000262000   -0.0000000900   -0.0000277900
  -0.0000258600    0.0000161600   -0.0000290600
  -0.0000346000    0.0000312300   -0.0000403800
   0.0000032900    0.0000207800   -0.0000280300
   0.0000142500    0.0000209500   -0.0000271200
   0.0000133000   -0.0000092100   -0.0000247900
  -0.0000011300   -0.0000262700   -0.0000201500
  -0.0000101400   -0.0000220200   -0.0000247400
  -0.0000126300   -0.0000125800   -0.0000239300
  -0.0000124500    0.0000087800   -0.0000285200
  -0.0000107100    0.0000216400   -0.0000244400
  -0.0000019800    0.0000367400   -0.0000173400
  -0.0000011300    0.0000173600   -0.0000260100
   0.0000051500   -0.0000016700   -0.0000280300
  -0.0000026800   -0.0000162900   -0.0000276100
   0.0000005400   -0.0000297400   -0.0000308000
   0.0000047600   -0.0000363500   -0.0000111100
  -0.0000004000   -0.0000207500   -0.0000317700
   0.0000032300    0.0000203300   -0.0000324000
   0.0000654100    0.0000287100   -0.0000113700
  -0.0000082200    0.0000356100   -0.0000107900
  -0.0000138700    0.0000110900   -0.0000275200
  -0.0000107400   -0.0000090700   -0.0000285500
  -0.0000189500   -0.0000402600   -0.0000411700
   0.0000015400   -0.0000098300   -0.0000260400
   0.0000651000    0.0000047300    0.0000207000
   0.0000395700   -0.0001118300   -0.0001160200
   0.0002751700    0.0004619000    0.0002758000
  -0.0000659600    0.0000399700    0.0000324800
  -0.0000411400    0.0000089900   -0.0000096100
  -0.0000310500   -0.0000008800   -0.0000268100
  -0.0000505000   -0.0000155400   -0.0000423100
  -0.0000366700   -0.0000227400   -0.0000245300
   0.0000027700   -0.0008602600    0.0003210900
  -0.0027897400    0.0003583400    0.0012302100
   0.0116257600   -0.0010865100    0.0042401900
   0.0006423300   -0.0003926100   -0.0000538900
   0.0000219900   -0.0000679600   -0.0000069400
  -0.0000526200   -0.0000039300   -0.0000133700
  -0.0000453300    0.0000026500   -0.0000347200
   0.0000059700    0.0000029900   -0.0000309400
   0.0001357400    0.0003545900    0.0006458700
   0.0485038800    0.0223780000    0.0491459200
  -0.0807341100    0.0003685300   -0.0838580700
   0.0062355600   -0.0002090500   -0.0025331100
   0.0000381800    0.0000847000   -0.0001397300
   0.0000428900    0.0000113700    0.0000107400
   0.0000266200    0.0000000400    0.0000050800
   0.0000418700   -0.0000001100    0.0000119500
   0.0000073200    0.0000312500   -0.0000984400
   0.0051000900    0.0001001500   -0.0012525000
   0.0006796100   -0.0024480200   -0.0015105400
   0.0010839500    0.0033951000   -0.0022624100
  -0.0001202100   -0.0000297400    0.0001404000
   0.0000477900    0.0000282100   -0.0000072200
   0.0000251500    0.0000061900    0.0000076400
   0.0000197000   -0.0000037100    0.0000077300
   0.0000418200   -0.0000280200   -0.0000115600
  -0.0001332100    0.0000369100   -0.0000575200
  -0.0000494900    0.0000025500   -0.0001690200
  -0.0000690900   -0.0000965200    0.0000410200
   0.0000654300   -0.0000340300   -0.0000669600
   0.0000365000    0.0000314100   -0.0000005600
   0.0000194900    0.0000141000    0.0000155900
   0.0000126400   -0.0000000300    0.0000096600
   0.0000135600   -0.0000105600    0.0000090200
   0.0000337800   -0.0000262500   -0.0000186000
   0.0000037200   -0.0000161500    0.0000056900
  -0.0000145400   -0.0000084700   -0.0000072800
  -0.0000037800   -0.0000020400   -0.0000111500
   0.0000136400    0.0000112900    0.0000168000
   0.0000100400    0.0000129500    0.0000066600
   0.0000055900    0.0000041100    0.0000094500
   0.0000056600   -0.0000039800    0.0000097500
   0.0000052600   -0.0000093800    0.0000087100
   0.0000019300   -0.0000142600    0.0000050000
   0.0000019700   -0.0000069900    0.0000081600
  -0.0000047400   -0.0000031300    0.0000122300
   0.0000003000    0.0000078000    0.0000073400
   0.0000020600    0.0000142400    0.0000051600
   0.0000007800    0.0000067400    0.0000067600
  -0.0000048300   -0.0000033300    0.0000122700
   0.0000013900   -0.0000126300    0.0000087200
   0.0000040200   -0.0000283500    0.0000050800
   0.0000085200   -0.0000130400    0.0000047200
   0.0000058300   -0.0000040200    0.0000096400
   0.0000055900    0.0000040800    0.0000095400
   0.0000068900    0.0000139200    0.0000106300
   0.0000133900    0.0000220800    0.0000173800
  -0.0000108500    0.0000055900   -0.0000026600
  -0.0000078300   -0.0000104300   -0.0000163700
  -0.0000339900   -0.0000784100   -0.0001903200
   0.0000279400   -0.0000359800   -0.0000110600
   0.0000139700   -0.0000108500    0.0000086400
   0.0000127300   -0.0000002100    0.0000096600
   0.0000193200    0.0000138400    0.0000158500
   0.0000423100    0.0000315000   -0.0000074900
   0.0000500900   -0.0000078200   -0.0000469700
  -0.0000689900   -0.0000082000    0.0000405900
   0.0011781900   -0.0030293400   -0.0021537400
  -0.0002119700    0.0000818300    0.0000306700
   0.0000433100   -0.0000159300   -0.0000130700
   0.0000225200   -0.0000036200    0.0000043000
   0.0000224800    0.0000016900    0.0000110400
   0.0000466800    0.0000302500   -0.0000056300
  -0.0000435900    0.0000140600    0.0000491100
   0.0005777300    0.0021821300   -0.0016250400
  -0.0023328100    0.0000002300    0.0086475900
  -0.0002044600   -0.0001247800   -0.0008209500
   0.0000311300    0.0001480700    0.0000135400
   0.0000160400    0.0000001900    0.0000192400
   0.0000230700    0.0000006900    0.0000189900
   0.0000177900    0.0000037300    0.0000213300
   0.0000385500   -0.0001328100    0.0000201300
   0.0017540400   -0.0015142300    0.0015552000
   0.0004315700   -0.0006446400    0.0001123000
  -0.0019654900   -0.0002347700    0.0006326600
   0.0001365700    0.0001044900   -0.0001909000
  -0.0000012300    0.0000276000    0.0000151300
   0.0000205200    0.0000037300    0.0000196400
   0.0000233800   -0.0000034100    0.0000172700
   0.0000185600   -0.0000235400    0.0000258300
   0.0000932600   -0.0000790600   -0.0001040700
  -0.0000668700    0.0000781400    0.0000255700
  -0.0000442400   -0.0000405100   -0.0001454300
  -0.0000591700   -0.0000909300    0.0000085200
   0.0000056100   -0.0000176500    0.0000107200
   0.0000136100    0.0000067400    0.0000168900
   0.0000142200   -0.0000000400    0.0000187400
   0.0000171400   -0.0000086700    0.0000202300
   0.0000122100   -0.0000015100    0.0000300500
  -0.0000046800   -0.0000152300    0.0000229900
  -0.0000096800    0.0000097700    0.0000284100
  -0.0000028200   -0.0000242700    0.0000125000
  -0.0000021500    0.0000117100    0.0000177400
   0.0000041600    0.0000105700    0.0000176100
   0.0000067100    0.0000043900    0.0000190000
   0.0000067800   -0.0000042500    0.0000186100
   0.0000054500   -0.0000131300    0.0000193100
   0.0000008700   -0.0000128100    0.0000197200
  -0.0000015400   -0.0000089900    0.0000193900
   0.0000021300   -0.0000016100    0.0000185800
   0.0000017300    0.0000091900    0.0000173600
   0.0000020500    0.0000121400    0.0000182600
   0.0000008500    0.0000118900    0.0000163500
   0.0000020300    0.0000021000    0.0000185700
  -0.0000008100   -0.0000095200    0.0000204100
  -0.0000056400   -0.0000102000    0.0000219500
   0.0000041700   -0.0000150200    0.0000176600
   0.0000069800   -0.0000042700    0.0000187400
   0.0000066400    0.0000043900    0.0000188700
   0.0000055400    0.0000119000    0.0000192200
  -0.0000011300    0.0000097800    0.0000187900
   0.0000002300    0.0000243000    0.0000161800
  -0.0000129600   -0.0000089300    0.0000247900
  -0.0000706700   -0.0001981600    0.0000219400
   0.0000012400   -0.0000250300    0.0000164600
   0.0000141200   -0.0000069700    0.0000164000
   0.0000143100   -0.0000002700    0.0000187300
   0.0000168300    0.0000084500    0.0000207400
   0.0000169500    0.0000256600    0.0000245200
  -0.0000543100    0.0001963500    0.0000115000
  -0.0000440500   -0.0000226900   -0.0001478500
  -0.0005644800   -0.0003406900   -0.0010853500
   0.0000819000   -0.0000732000   -0.0001225100
   0.0000041900    0.0000146100    0.0000084800
   0.0000230100   -0.0000006100    0.0000166600
   0.0000210000    0.0000032600    0.0000202400
   0.0000130600   -0.0000011800    0.0000324600
   0.0001536100    0.0001138400   -0.0001691900
  -0.0009859900    0.0028198100    0.0018114500

65   
 -0.0077500836276309   0.0000000000000000  -0.0063195097725004
  -0.0097864700    0.0219913600   -0.0273973400
  -0.0001907300   -0.0017313300   -0.0002083400
   0.0000722900    0.0000249700    0.0001275500
   0.0000560900    0.0000231800   -0.0000432400
   0.0000500800   -0.0000007800   -0.0000323100
   0.0000691000   -0.0000328300   -0.0000272300
   0.0001542300   -0.0001024000   -0.0001468900
  -0.0008244100    0.0021045000   -0.0023617900
  -0.0004247100    0.0005395000   -0.0006848200
  -0.0006160600   -0.0009418000   -0.0000427800
   0.0000811100    0.0001247700    0.0000592300
   0.0000230200    0.0000130100   -0.0000449600
   0.0000403100    0.0000075400   -0.0000312400
   0.0000444800   -0.0000089400   -0.0000301400
   0.0000578000   -0.0000330900   -0.0000053800
   0.0001900500   -0.0001566800   -0.0000777700
  -0.0000345000   -0.0000136000   -0.0000346100
  -0.0000044400    0.0000176100   -0.0000619300
   0.0000132300   -0.0000321900   -0.0000440300
   0.0000212800    0.0000257200   -0.0000538400
   0.0000238300    0.0000143100   -0.0000335200
   0.0000273400   -0.0000000900   -0.0000291100
   0.0000269200   -0.0000173000   -0.0000278500
   0.0000357100   -0.0000321800   -0.0000165700
  -0.0000041000   -0.0000211100   -0.0000289100
  -0.0000150900   -0.0000209700   -0.0000297900
  -0.0000142500    0.0000098500   -0.0000321000
   0.0000016100    0.0000272900   -0.0000368500
   0.0000102900    0.0000229400   -0.0000321900
   0.0000135400    0.0000129500   -0.0000329800
   0.0000125800   -0.0000089400   -0.0000284100
   0.0000115100   -0.0000222900   -0.0000324500
   0.0000020400   -0.0000380300   -0.0000395600
   0.0000010000   -0.0000178000   -0.0000308900
  -0.0000054200    0.0000014800   -0.0000288900
   0.0000027300    0.0000169900   -0.0000293100
  -0.0000004800    0.0000304300   -0.0000261700
  -0.0000046400    0.0000367800   -0.0000459000
   0.0000004800    0.0000199800   -0.0000251500
  -0.0000029200   -0.0000213200   -0.0000246400
  -0.0000651900   -0.0000297200   -0.0000464500
   0.0000087600   -0.0000365500   -0.0000460500
   0.0000137100   -0.0000109400   -0.0000294000
   0.0000113900    0.0000098200   -0.0000284100
   0.0000187300    0.0000418100   -0.0000158900
  -0.0000026100    0.0000122100   -0.0000317000
  -0.0000654700   -0.0000037700   -0.0000774500
  -0.0000397200    0.0001118500    0.0000599600
  -0.0002583900   -0.0004750200   -0.0003391500
   0.0000685000   -0.0000419400   -0.0000891500
   0.0000420300   -0.0000095100   -0.0000471900
   0.0000320100    0.0000010100   -0.0000301000
   0.0000515900    0.0000159400   -0.0000147100
   0.0000386100    0.0000250200   -0.0000336500
  -0.0000107700    0.0008561400   -0.0003829100
   0.0028143700   -0.0003646000   -0.0012770300
  -0.0117838500    0.0011515800   -0.0041993600
  -0.0006066700    0.0003803300   -0.0000204800
  -0.0000200100    0.0000666500   -0.0000513900
   0.0000543100    0.0000041000   -0.0000435000
   0.0000464200   -0.0000024300   -0.0000221700
  -0.0000043100   -0.0000039100   -0.0000272200
  -0.0001780600   -0.0003576200   -0.0007061900
  -0.0504384500   -0.0234734200   -0.0512554600
   0.0827107600    0.0003704800    0.0862147800
  -0.0061364800    0.0002184800    0.0025387200
  -0.0000441700   -0.0000833000    0.0001584500
  -0.0000437900   -0.0000112000    0.0000108900
  -0.0000274200   -0.0000000300    0.0000139300
  -0.0000428500   -0.0000000300    0.0000096400
  -0.0000084400   -0.0000310100    0.0001181000
  -0.0052227900   -0.0001118400    0.0013051800
  -0.0006530500    0.0024688200    0.0015610200
  -0.0010865700   -0.0034048000    0.0022955500
   0.0001210900    0.0000293600   -0.0001189000
  -0.0000488600   -0.0000281400    0.0000285100
  -0.0000257200   -0.0000060700    0.0000137200
  -0.0000205300    0.0000039000    0.0000134900
  -0.0000426500    0.0000288500    0.0000331400
   0.0001349800   -0.0000377400    0.0000848300
   0.0000507100   -0.0000025600    0.0001900800
   0.0000698300    0.0000925900   -0.0000174800
  -0.0000669300    0.0000285200    0.0000885900
  -0.0000369900   -0.0000322400    0.0000219300
  -0.0000200200   -0.0000142700    0.0000035900
  -0.0000132000   -0.0000000600    0.0000117000
  -0.0000142600    0.0000110800    0.0000101100
  -0.0000340600    0.0000265900    0.0000393300
  -0.0000033500    0.0000168100    0.0000159500
   0.0000151100    0.0000085000    0.0000289300
   0.0000042500    0.0000018200    0.0000330800
  -0.0000139300   -0.0000121200    0.0000043600
  -0.0000101100   -0.0000132200    0.0000147000
  -0.0000059200   -0.0000041500    0.0000116600
  -0.0000057900    0.0000043200    0.0000116200
  -0.0000055300    0.0000099000    0.0000124900
  -0.0000019600    0.0000147100    0.0000140600
  -0.0000018600    0.0000070500    0.0000132900
   0.0000049000    0.0000030600    0.0000067800
  -0.0000003100   -0.0000083300    0.0000140600
  -0.0000021300   -0.0000146500    0.0000138700
  -0.0000008100   -0.0000071300    0.0000146500
   0.0000048100    0.0000034200    0.0000068200
  -0.0000014800    0.0000128000    0.0000126700
  -0.0000040300    0.0000289600    0.0000165700
  -0.0000086500    0.0000133900    0.0000164100
  -0.0000057800    0.0000041900    0.0000117400
  -0.0000057500   -0.0000042800    0.0000115600
  -0.0000068500   -0.0000142600    0.0000107800
  -0.0000132100   -0.0000223000    0.0000037200
   0.0000112800   -0.0000056700    0.0000243200
   0.0000077500    0.0000111300    0.0000370900
   0.0000329100    0.0000798900    0.0002095900
  -0.0000283100    0.0000362600    0.0000325800
  -0.0000143400    0.0000110500    0.0000103800
  -0.0000131000   -0.0000000500    0.0000117200
  -0.0000197000   -0.0000142500    0.0000032000
  -0.0000427900   -0.0000324300    0.0000293100
  -0.0000489500    0.0000067000    0.0000677600
   0.0000699100    0.0000073200   -0.0000179100
  -0.0011796100    0.0030234700    0.0021747900
   0.0002065500   -0.0000796100   -0.0000113000
  -0.0000436400    0.0000162600    0.0000345800
  -0.0000231300    0.0000036600    0.0000167900
  -0.0000229700   -0.0000017600    0.0000103800
  -0.0000475000   -0.0000310800    0.0000271600
   0.0000474700   -0.0000135900   -0.0000258800
  -0.0005680600   -0.0022033500    0.0016758500
   0.0023630000    0.0000002800   -0.0086909300
   0.0001839600    0.0001076200    0.0008699600
  -0.0000338200   -0.0001475700    0.0000254800
  -0.0000169400   -0.0000003800    0.0000164800
  -0.0000238600   -0.0000007100    0.0000191000
  -0.0000186900   -0.0000038900    0.0000143000
  -0.0000397600    0.0001351600    0.0000156800
  -0.0017597200    0.0015022600   -0.0015394400
  -0.0003916100    0.0006429800   -0.0000605400
   0.0019758900    0.0002323300   -0.0005978900
  -0.0001364100   -0.0001037300    0.0002211600
  -0.0000000700   -0.0000278600    0.0000210600
  -0.0000211000   -0.0000036300    0.0000160500
  -0.0000242200    0.0000036100    0.0000186900
  -0.0000191000    0.0000245600    0.0000098200
  -0.0001018000    0.0000841900    0.0001370500
   0.0000686100   -0.0000763700    0.0000105000
   0.0000434300    0.0000399400    0.0001812100
   0.0000589800    0.0000890200    0.0000310900
  -0.0000063900    0.0000165300    0.0000251000
  -0.0000142200   -0.0000069500    0.0000211900
  -0.0000147700   -0.0000000600    0.0000169600
  -0.0000177500    0.0000091000    0.0000178300
  -0.0000128300    0.0000015900    0.0000055800
   0.0000049300    0.0000159200    0.0000126700
   0.0000102500   -0.0000096500    0.0000075100
   0.0000032600    0.0000238000    0.0000232900
   0.0000021000   -0.0000123000    0.0000182700
  -0.0000042800   -0.0000108400    0.0000180900
  -0.0000070200   -0.0000044300    0.0000169600
  -0.0000069000    0.0000046000    0.0000171000
  -0.0000056900    0.0000136300    0.0000166600
  -0.0000008900    0.0000132600    0.0000183300
   0.0000017000    0.0000090500    0.0000162500
  -0.0000020100    0.0000015100    0.0000195200
  -0.0000017300   -0.0000097700    0.0000183400
  -0.0000021400   -0.0000125300    0.0000198700
  -0.0000009000   -0.0000123200    0.0000193400
  -0.0000020900   -0.0000019700    0.0000195200
   0.0000007200    0.0000096900    0.0000152500
   0.0000057200    0.0000108700    0.0000137700
  -0.0000043300    0.0000154000    0.0000182400
  -0.0000069400    0.0000044400    0.0000169400
  -0.0000068100   -0.0000045900    0.0000171100
  -0.0000055200   -0.0000122500    0.0000164900
   0.0000013900   -0.0000102000    0.0000171700
   0.0000003300   -0.0000240900    0.0000195800
   0.0000129200    0.0000095300    0.0000112900
   0.0000714500    0.0001993700    0.0000150700
  -0.0000014400    0.0000254500    0.0000193700
  -0.0000145300    0.0000071900    0.0000217200
  -0.0000147000    0.0000000000    0.0000169600
  -0.0000172300   -0.0000088200    0.0000173100
  -0.0000174500   -0.0000271500    0.0000115300
   0.0000571800   -0.0001989100    0.0000258700
   0.0000436400    0.0000223600    0.0001787500
   0.0005632700    0.0003518200    0.0011346100
  -0.0000823700    0.0000722500    0.0001562600
  -0.0000051300   -0.0000139200    0.0000272400
  -0.0000236700    0.0000006900    0.0000192900
  -0.0000215200   -0.0000033900    0.0000154500
  -0.0000141400    0.0000010600    0.0000036100
  -0.0001501200   -0.0001121300    0.0002052600
   0.0010045400   -0.0028770400   -0.0018122600
