phonopy:
  version: 2.12.0
  frequency_unit_conversion_factor: 15.633302
  symmetry_tolerance: 1.00000e-05
  configuration:
    create_displacements: ".true."
    dim: "8 8 1"

physical_unit:
  atomic_mass: "AMU"
  length: "angstrom"
  force_constants: "eV/angstrom^2"

space_group:
  type: "P-6m2"
  number: 187
  Hall_symbol: "P -6 2"

supercell_matrix:
- [   8,   0,   0 ]
- [   0,   8,   0 ]
- [   0,   0,   1 ]

primitive_cell:
  lattice:
  - [     3.269865672089538,     0.000000000000000,     0.000000000000000 ] # a
  - [    -1.634932836044769,     2.831786738992216,     0.000000000000000 ] # b
  - [     0.000000000000000,     0.000000000000000,    21.330296871493434 ] # c
  points:
  - symbol: Mo # 1
    coordinates: [  0.333333333333336,  0.666666666666664,  0.500000048207923 ]
    mass: 95.960000
  - symbol: Se # 2
    coordinates: [  0.000000000000000,  0.000000000000000,  0.578066554223654 ]
    mass: 78.960000
  - symbol: Se # 3
    coordinates: [  0.000000000000000,  0.000000000000000,  0.421933445776346 ]
    mass: 78.960000
  reciprocal_lattice: # without 2pi
  - [     0.305822960415671,     0.176566968520356,     0.000000000000000 ] # a*
  - [     0.000000000000000,     0.353133937040712,     0.000000000000000 ] # b*
  - [     0.000000000000000,     0.000000000000000,     0.046881672862999 ] # c*

unit_cell:
  lattice:
  - [     3.269865672089538,     0.000000000000000,     0.000000000000000 ] # a
  - [    -1.634932836044769,     2.831786738992216,     0.000000000000000 ] # b
  - [     0.000000000000000,     0.000000000000000,    21.330296871493434 ] # c
  points:
  - symbol: Mo # 1
    coordinates: [  0.333333333333336,  0.666666666666664,  0.500000048207923 ]
    mass: 95.960000
    reduced_to: 1
  - symbol: Se # 2
    coordinates: [ -0.000000000000000, -0.000000000000000,  0.578066554223654 ]
    mass: 78.960000
    reduced_to: 2
  - symbol: Se # 3
    coordinates: [ -0.000000000000000, -0.000000000000000,  0.421933445776346 ]
    mass: 78.960000
    reduced_to: 3

supercell:
  lattice:
  - [    26.158925376716301,     0.000000000000000,     0.000000000000000 ] # a
  - [   -13.079462688358150,    22.654293911937732,     0.000000000000000 ] # b
  - [     0.000000000000000,     0.000000000000000,    21.330296871493434 ] # c
  points:
  - symbol: Mo # 1
    coordinates: [  0.041666666666667,  0.083333333333333,  0.500000048207923 ]
    mass: 95.960000
    reduced_to: 1
  - symbol: Mo # 2
    coordinates: [  0.166666666666667,  0.083333333333333,  0.500000048207923 ]
    mass: 95.960000
    reduced_to: 1
  - symbol: Mo # 3
    coordinates: [  0.291666666666667,  0.083333333333333,  0.500000048207923 ]
    mass: 95.960000
    reduced_to: 1
  - symbol: Mo # 4
    coordinates: [  0.416666666666667,  0.083333333333333,  0.500000048207923 ]
    mass: 95.960000
    reduced_to: 1
  - symbol: Mo # 5
    coordinates: [  0.541666666666667,  0.083333333333333,  0.500000048207923 ]
    mass: 95.960000
    reduced_to: 1
  - symbol: Mo # 6
    coordinates: [  0.666666666666667,  0.083333333333333,  0.500000048207923 ]
    mass: 95.960000
    reduced_to: 1
  - symbol: Mo # 7
    coordinates: [  0.791666666666667,  0.083333333333333,  0.500000048207923 ]
    mass: 95.960000
    reduced_to: 1
  - symbol: Mo # 8
    coordinates: [  0.916666666666667,  0.083333333333333,  0.500000048207923 ]
    mass: 95.960000
    reduced_to: 1
  - symbol: Mo # 9
    coordinates: [  0.041666666666667,  0.208333333333333,  0.500000048207923 ]
    mass: 95.960000
    reduced_to: 1
  - symbol: Mo # 10
    coordinates: [  0.166666666666667,  0.208333333333333,  0.500000048207923 ]
    mass: 95.960000
    reduced_to: 1
  - symbol: Mo # 11
    coordinates: [  0.291666666666667,  0.208333333333333,  0.500000048207923 ]
    mass: 95.960000
    reduced_to: 1
  - symbol: Mo # 12
    coordinates: [  0.416666666666667,  0.208333333333333,  0.500000048207923 ]
    mass: 95.960000
    reduced_to: 1
  - symbol: Mo # 13
    coordinates: [  0.541666666666667,  0.208333333333333,  0.500000048207923 ]
    mass: 95.960000
    reduced_to: 1
  - symbol: Mo # 14
    coordinates: [  0.666666666666667,  0.208333333333333,  0.500000048207923 ]
    mass: 95.960000
    reduced_to: 1
  - symbol: Mo # 15
    coordinates: [  0.791666666666667,  0.208333333333333,  0.500000048207923 ]
    mass: 95.960000
    reduced_to: 1
  - symbol: Mo # 16
    coordinates: [  0.916666666666667,  0.208333333333333,  0.500000048207923 ]
    mass: 95.960000
    reduced_to: 1
  - symbol: Mo # 17
    coordinates: [  0.041666666666667,  0.333333333333333,  0.500000048207923 ]
    mass: 95.960000
    reduced_to: 1
  - symbol: Mo # 18
    coordinates: [  0.166666666666667,  0.333333333333333,  0.500000048207923 ]
    mass: 95.960000
    reduced_to: 1
  - symbol: Mo # 19
    coordinates: [  0.291666666666667,  0.333333333333333,  0.500000048207923 ]
    mass: 95.960000
    reduced_to: 1
  - symbol: Mo # 20
    coordinates: [  0.416666666666667,  0.333333333333333,  0.500000048207923 ]
    mass: 95.960000
    reduced_to: 1
  - symbol: Mo # 21
    coordinates: [  0.541666666666667,  0.333333333333333,  0.500000048207923 ]
    mass: 95.960000
    reduced_to: 1
  - symbol: Mo # 22
    coordinates: [  0.666666666666667,  0.333333333333333,  0.500000048207923 ]
    mass: 95.960000
    reduced_to: 1
  - symbol: Mo # 23
    coordinates: [  0.791666666666667,  0.333333333333333,  0.500000048207923 ]
    mass: 95.960000
    reduced_to: 1
  - symbol: Mo # 24
    coordinates: [  0.916666666666667,  0.333333333333333,  0.500000048207923 ]
    mass: 95.960000
    reduced_to: 1
  - symbol: Mo # 25
    coordinates: [  0.041666666666667,  0.458333333333333,  0.500000048207923 ]
    mass: 95.960000
    reduced_to: 1
  - symbol: Mo # 26
    coordinates: [  0.166666666666667,  0.458333333333333,  0.500000048207923 ]
    mass: 95.960000
    reduced_to: 1
  - symbol: Mo # 27
    coordinates: [  0.291666666666667,  0.458333333333333,  0.500000048207923 ]
    mass: 95.960000
    reduced_to: 1
  - symbol: Mo # 28
    coordinates: [  0.416666666666667,  0.458333333333333,  0.500000048207923 ]
    mass: 95.960000
    reduced_to: 1
  - symbol: Mo # 29
    coordinates: [  0.541666666666667,  0.458333333333333,  0.500000048207923 ]
    mass: 95.960000
    reduced_to: 1
  - symbol: Mo # 30
    coordinates: [  0.666666666666667,  0.458333333333333,  0.500000048207923 ]
    mass: 95.960000
    reduced_to: 1
  - symbol: Mo # 31
    coordinates: [  0.791666666666667,  0.458333333333333,  0.500000048207923 ]
    mass: 95.960000
    reduced_to: 1
  - symbol: Mo # 32
    coordinates: [  0.916666666666667,  0.458333333333333,  0.500000048207923 ]
    mass: 95.960000
    reduced_to: 1
  - symbol: Mo # 33
    coordinates: [  0.041666666666667,  0.583333333333333,  0.500000048207923 ]
    mass: 95.960000
    reduced_to: 1
  - symbol: Mo # 34
    coordinates: [  0.166666666666667,  0.583333333333333,  0.500000048207923 ]
    mass: 95.960000
    reduced_to: 1
  - symbol: Mo # 35
    coordinates: [  0.291666666666667,  0.583333333333333,  0.500000048207923 ]
    mass: 95.960000
    reduced_to: 1
  - symbol: Mo # 36
    coordinates: [  0.416666666666667,  0.583333333333333,  0.500000048207923 ]
    mass: 95.960000
    reduced_to: 1
  - symbol: Mo # 37
    coordinates: [  0.541666666666667,  0.583333333333333,  0.500000048207923 ]
    mass: 95.960000
    reduced_to: 1
  - symbol: Mo # 38
    coordinates: [  0.666666666666667,  0.583333333333333,  0.500000048207923 ]
    mass: 95.960000
    reduced_to: 1
  - symbol: Mo # 39
    coordinates: [  0.791666666666667,  0.583333333333333,  0.500000048207923 ]
    mass: 95.960000
    reduced_to: 1
  - symbol: Mo # 40
    coordinates: [  0.916666666666667,  0.583333333333333,  0.500000048207923 ]
    mass: 95.960000
    reduced_to: 1
  - symbol: Mo # 41
    coordinates: [  0.041666666666667,  0.708333333333333,  0.500000048207923 ]
    mass: 95.960000
    reduced_to: 1
  - symbol: Mo # 42
    coordinates: [  0.166666666666667,  0.708333333333333,  0.500000048207923 ]
    mass: 95.960000
    reduced_to: 1
  - symbol: Mo # 43
    coordinates: [  0.291666666666667,  0.708333333333333,  0.500000048207923 ]
    mass: 95.960000
    reduced_to: 1
  - symbol: Mo # 44
    coordinates: [  0.416666666666667,  0.708333333333333,  0.500000048207923 ]
    mass: 95.960000
    reduced_to: 1
  - symbol: Mo # 45
    coordinates: [  0.541666666666667,  0.708333333333333,  0.500000048207923 ]
    mass: 95.960000
    reduced_to: 1
  - symbol: Mo # 46
    coordinates: [  0.666666666666667,  0.708333333333333,  0.500000048207923 ]
    mass: 95.960000
    reduced_to: 1
  - symbol: Mo # 47
    coordinates: [  0.791666666666667,  0.708333333333333,  0.500000048207923 ]
    mass: 95.960000
    reduced_to: 1
  - symbol: Mo # 48
    coordinates: [  0.916666666666667,  0.708333333333333,  0.500000048207923 ]
    mass: 95.960000
    reduced_to: 1
  - symbol: Mo # 49
    coordinates: [  0.041666666666667,  0.833333333333333,  0.500000048207923 ]
    mass: 95.960000
    reduced_to: 1
  - symbol: Mo # 50
    coordinates: [  0.166666666666667,  0.833333333333333,  0.500000048207923 ]
    mass: 95.960000
    reduced_to: 1
  - symbol: Mo # 51
    coordinates: [  0.291666666666667,  0.833333333333333,  0.500000048207923 ]
    mass: 95.960000
    reduced_to: 1
  - symbol: Mo # 52
    coordinates: [  0.416666666666667,  0.833333333333333,  0.500000048207923 ]
    mass: 95.960000
    reduced_to: 1
  - symbol: Mo # 53
    coordinates: [  0.541666666666667,  0.833333333333333,  0.500000048207923 ]
    mass: 95.960000
    reduced_to: 1
  - symbol: Mo # 54
    coordinates: [  0.666666666666667,  0.833333333333333,  0.500000048207923 ]
    mass: 95.960000
    reduced_to: 1
  - symbol: Mo # 55
    coordinates: [  0.791666666666667,  0.833333333333333,  0.500000048207923 ]
    mass: 95.960000
    reduced_to: 1
  - symbol: Mo # 56
    coordinates: [  0.916666666666667,  0.833333333333333,  0.500000048207923 ]
    mass: 95.960000
    reduced_to: 1
  - symbol: Mo # 57
    coordinates: [  0.041666666666667,  0.958333333333333,  0.500000048207923 ]
    mass: 95.960000
    reduced_to: 1
  - symbol: Mo # 58
    coordinates: [  0.166666666666667,  0.958333333333333,  0.500000048207923 ]
    mass: 95.960000
    reduced_to: 1
  - symbol: Mo # 59
    coordinates: [  0.291666666666667,  0.958333333333333,  0.500000048207923 ]
    mass: 95.960000
    reduced_to: 1
  - symbol: Mo # 60
    coordinates: [  0.416666666666667,  0.958333333333333,  0.500000048207923 ]
    mass: 95.960000
    reduced_to: 1
  - symbol: Mo # 61
    coordinates: [  0.541666666666667,  0.958333333333333,  0.500000048207923 ]
    mass: 95.960000
    reduced_to: 1
  - symbol: Mo # 62
    coordinates: [  0.666666666666667,  0.958333333333333,  0.500000048207923 ]
    mass: 95.960000
    reduced_to: 1
  - symbol: Mo # 63
    coordinates: [  0.791666666666667,  0.958333333333333,  0.500000048207923 ]
    mass: 95.960000
    reduced_to: 1
  - symbol: Mo # 64
    coordinates: [  0.916666666666667,  0.958333333333333,  0.500000048207923 ]
    mass: 95.960000
    reduced_to: 1
  - symbol: Se # 65
    coordinates: [  0.000000000000000,  0.000000000000000,  0.578066554223654 ]
    mass: 78.960000
    reduced_to: 65
  - symbol: Se # 66
    coordinates: [  0.125000000000000,  0.000000000000000,  0.578066554223654 ]
    mass: 78.960000
    reduced_to: 65
  - symbol: Se # 67
    coordinates: [  0.250000000000000,  0.000000000000000,  0.578066554223654 ]
    mass: 78.960000
    reduced_to: 65
  - symbol: Se # 68
    coordinates: [  0.375000000000000,  0.000000000000000,  0.578066554223654 ]
    mass: 78.960000
    reduced_to: 65
  - symbol: Se # 69
    coordinates: [  0.500000000000000,  0.000000000000000,  0.578066554223654 ]
    mass: 78.960000
    reduced_to: 65
  - symbol: Se # 70
    coordinates: [  0.625000000000000,  0.000000000000000,  0.578066554223654 ]
    mass: 78.960000
    reduced_to: 65
  - symbol: Se # 71
    coordinates: [  0.750000000000000,  0.000000000000000,  0.578066554223654 ]
    mass: 78.960000
    reduced_to: 65
  - symbol: Se # 72
    coordinates: [  0.875000000000000,  0.000000000000000,  0.578066554223654 ]
    mass: 78.960000
    reduced_to: 65
  - symbol: Se # 73
    coordinates: [  0.000000000000000,  0.125000000000000,  0.578066554223654 ]
    mass: 78.960000
    reduced_to: 65
  - symbol: Se # 74
    coordinates: [  0.125000000000000,  0.125000000000000,  0.578066554223654 ]
    mass: 78.960000
    reduced_to: 65
  - symbol: Se # 75
    coordinates: [  0.250000000000000,  0.125000000000000,  0.578066554223654 ]
    mass: 78.960000
    reduced_to: 65
  - symbol: Se # 76
    coordinates: [  0.375000000000000,  0.125000000000000,  0.578066554223654 ]
    mass: 78.960000
    reduced_to: 65
  - symbol: Se # 77
    coordinates: [  0.500000000000000,  0.125000000000000,  0.578066554223654 ]
    mass: 78.960000
    reduced_to: 65
  - symbol: Se # 78
    coordinates: [  0.625000000000000,  0.125000000000000,  0.578066554223654 ]
    mass: 78.960000
    reduced_to: 65
  - symbol: Se # 79
    coordinates: [  0.750000000000000,  0.125000000000000,  0.578066554223654 ]
    mass: 78.960000
    reduced_to: 65
  - symbol: Se # 80
    coordinates: [  0.875000000000000,  0.125000000000000,  0.578066554223654 ]
    mass: 78.960000
    reduced_to: 65
  - symbol: Se # 81
    coordinates: [  0.000000000000000,  0.250000000000000,  0.578066554223654 ]
    mass: 78.960000
    reduced_to: 65
  - symbol: Se # 82
    coordinates: [  0.125000000000000,  0.250000000000000,  0.578066554223654 ]
    mass: 78.960000
    reduced_to: 65
  - symbol: Se # 83
    coordinates: [  0.250000000000000,  0.250000000000000,  0.578066554223654 ]
    mass: 78.960000
    reduced_to: 65
  - symbol: Se # 84
    coordinates: [  0.375000000000000,  0.250000000000000,  0.578066554223654 ]
    mass: 78.960000
    reduced_to: 65
  - symbol: Se # 85
    coordinates: [  0.500000000000000,  0.250000000000000,  0.578066554223654 ]
    mass: 78.960000
    reduced_to: 65
  - symbol: Se # 86
    coordinates: [  0.625000000000000,  0.250000000000000,  0.578066554223654 ]
    mass: 78.960000
    reduced_to: 65
  - symbol: Se # 87
    coordinates: [  0.750000000000000,  0.250000000000000,  0.578066554223654 ]
    mass: 78.960000
    reduced_to: 65
  - symbol: Se # 88
    coordinates: [  0.875000000000000,  0.250000000000000,  0.578066554223654 ]
    mass: 78.960000
    reduced_to: 65
  - symbol: Se # 89
    coordinates: [  0.000000000000000,  0.375000000000000,  0.578066554223654 ]
    mass: 78.960000
    reduced_to: 65
  - symbol: Se # 90
    coordinates: [  0.125000000000000,  0.375000000000000,  0.578066554223654 ]
    mass: 78.960000
    reduced_to: 65
  - symbol: Se # 91
    coordinates: [  0.250000000000000,  0.375000000000000,  0.578066554223654 ]
    mass: 78.960000
    reduced_to: 65
  - symbol: Se # 92
    coordinates: [  0.375000000000000,  0.375000000000000,  0.578066554223654 ]
    mass: 78.960000
    reduced_to: 65
  - symbol: Se # 93
    coordinates: [  0.500000000000000,  0.375000000000000,  0.578066554223654 ]
    mass: 78.960000
    reduced_to: 65
  - symbol: Se # 94
    coordinates: [  0.625000000000000,  0.375000000000000,  0.578066554223654 ]
    mass: 78.960000
    reduced_to: 65
  - symbol: Se # 95
    coordinates: [  0.750000000000000,  0.375000000000000,  0.578066554223654 ]
    mass: 78.960000
    reduced_to: 65
  - symbol: Se # 96
    coordinates: [  0.875000000000000,  0.375000000000000,  0.578066554223654 ]
    mass: 78.960000
    reduced_to: 65
  - symbol: Se # 97
    coordinates: [  0.000000000000000,  0.500000000000000,  0.578066554223654 ]
    mass: 78.960000
    reduced_to: 65
  - symbol: Se # 98
    coordinates: [  0.125000000000000,  0.500000000000000,  0.578066554223654 ]
    mass: 78.960000
    reduced_to: 65
  - symbol: Se # 99
    coordinates: [  0.250000000000000,  0.500000000000000,  0.578066554223654 ]
    mass: 78.960000
    reduced_to: 65
  - symbol: Se # 100
    coordinates: [  0.375000000000000,  0.500000000000000,  0.578066554223654 ]
    mass: 78.960000
    reduced_to: 65
  - symbol: Se # 101
    coordinates: [  0.500000000000000,  0.500000000000000,  0.578066554223654 ]
    mass: 78.960000
    reduced_to: 65
  - symbol: Se # 102
    coordinates: [  0.625000000000000,  0.500000000000000,  0.578066554223654 ]
    mass: 78.960000
    reduced_to: 65
  - symbol: Se # 103
    coordinates: [  0.750000000000000,  0.500000000000000,  0.578066554223654 ]
    mass: 78.960000
    reduced_to: 65
  - symbol: Se # 104
    coordinates: [  0.875000000000000,  0.500000000000000,  0.578066554223654 ]
    mass: 78.960000
    reduced_to: 65
  - symbol: Se # 105
    coordinates: [  0.000000000000000,  0.625000000000000,  0.578066554223654 ]
    mass: 78.960000
    reduced_to: 65
  - symbol: Se # 106
    coordinates: [  0.125000000000000,  0.625000000000000,  0.578066554223654 ]
    mass: 78.960000
    reduced_to: 65
  - symbol: Se # 107
    coordinates: [  0.250000000000000,  0.625000000000000,  0.578066554223654 ]
    mass: 78.960000
    reduced_to: 65
  - symbol: Se # 108
    coordinates: [  0.375000000000000,  0.625000000000000,  0.578066554223654 ]
    mass: 78.960000
    reduced_to: 65
  - symbol: Se # 109
    coordinates: [  0.500000000000000,  0.625000000000000,  0.578066554223654 ]
    mass: 78.960000
    reduced_to: 65
  - symbol: Se # 110
    coordinates: [  0.625000000000000,  0.625000000000000,  0.578066554223654 ]
    mass: 78.960000
    reduced_to: 65
  - symbol: Se # 111
    coordinates: [  0.750000000000000,  0.625000000000000,  0.578066554223654 ]
    mass: 78.960000
    reduced_to: 65
  - symbol: Se # 112
    coordinates: [  0.875000000000000,  0.625000000000000,  0.578066554223654 ]
    mass: 78.960000
    reduced_to: 65
  - symbol: Se # 113
    coordinates: [  0.000000000000000,  0.750000000000000,  0.578066554223654 ]
    mass: 78.960000
    reduced_to: 65
  - symbol: Se # 114
    coordinates: [  0.125000000000000,  0.750000000000000,  0.578066554223654 ]
    mass: 78.960000
    reduced_to: 65
  - symbol: Se # 115
    coordinates: [  0.250000000000000,  0.750000000000000,  0.578066554223654 ]
    mass: 78.960000
    reduced_to: 65
  - symbol: Se # 116
    coordinates: [  0.375000000000000,  0.750000000000000,  0.578066554223654 ]
    mass: 78.960000
    reduced_to: 65
  - symbol: Se # 117
    coordinates: [  0.500000000000000,  0.750000000000000,  0.578066554223654 ]
    mass: 78.960000
    reduced_to: 65
  - symbol: Se # 118
    coordinates: [  0.625000000000000,  0.750000000000000,  0.578066554223654 ]
    mass: 78.960000
    reduced_to: 65
  - symbol: Se # 119
    coordinates: [  0.750000000000000,  0.750000000000000,  0.578066554223654 ]
    mass: 78.960000
    reduced_to: 65
  - symbol: Se # 120
    coordinates: [  0.875000000000000,  0.750000000000000,  0.578066554223654 ]
    mass: 78.960000
    reduced_to: 65
  - symbol: Se # 121
    coordinates: [  0.000000000000000,  0.875000000000000,  0.578066554223654 ]
    mass: 78.960000
    reduced_to: 65
  - symbol: Se # 122
    coordinates: [  0.125000000000000,  0.875000000000000,  0.578066554223654 ]
    mass: 78.960000
    reduced_to: 65
  - symbol: Se # 123
    coordinates: [  0.250000000000000,  0.875000000000000,  0.578066554223654 ]
    mass: 78.960000
    reduced_to: 65
  - symbol: Se # 124
    coordinates: [  0.375000000000000,  0.875000000000000,  0.578066554223654 ]
    mass: 78.960000
    reduced_to: 65
  - symbol: Se # 125
    coordinates: [  0.500000000000000,  0.875000000000000,  0.578066554223654 ]
    mass: 78.960000
    reduced_to: 65
  - symbol: Se # 126
    coordinates: [  0.625000000000000,  0.875000000000000,  0.578066554223654 ]
    mass: 78.960000
    reduced_to: 65
  - symbol: Se # 127
    coordinates: [  0.750000000000000,  0.875000000000000,  0.578066554223654 ]
    mass: 78.960000
    reduced_to: 65
  - symbol: Se # 128
    coordinates: [  0.875000000000000,  0.875000000000000,  0.578066554223654 ]
    mass: 78.960000
    reduced_to: 65
  - symbol: Se # 129
    coordinates: [  0.000000000000000,  0.000000000000000,  0.421933445776346 ]
    mass: 78.960000
    reduced_to: 129
  - symbol: Se # 130
    coordinates: [  0.125000000000000,  0.000000000000000,  0.421933445776346 ]
    mass: 78.960000
    reduced_to: 129
  - symbol: Se # 131
    coordinates: [  0.250000000000000,  0.000000000000000,  0.421933445776346 ]
    mass: 78.960000
    reduced_to: 129
  - symbol: Se # 132
    coordinates: [  0.375000000000000,  0.000000000000000,  0.421933445776346 ]
    mass: 78.960000
    reduced_to: 129
  - symbol: Se # 133
    coordinates: [  0.500000000000000,  0.000000000000000,  0.421933445776346 ]
    mass: 78.960000
    reduced_to: 129
  - symbol: Se # 134
    coordinates: [  0.625000000000000,  0.000000000000000,  0.421933445776346 ]
    mass: 78.960000
    reduced_to: 129
  - symbol: Se # 135
    coordinates: [  0.750000000000000,  0.000000000000000,  0.421933445776346 ]
    mass: 78.960000
    reduced_to: 129
  - symbol: Se # 136
    coordinates: [  0.875000000000000,  0.000000000000000,  0.421933445776346 ]
    mass: 78.960000
    reduced_to: 129
  - symbol: Se # 137
    coordinates: [  0.000000000000000,  0.125000000000000,  0.421933445776346 ]
    mass: 78.960000
    reduced_to: 129
  - symbol: Se # 138
    coordinates: [  0.125000000000000,  0.125000000000000,  0.421933445776346 ]
    mass: 78.960000
    reduced_to: 129
  - symbol: Se # 139
    coordinates: [  0.250000000000000,  0.125000000000000,  0.421933445776346 ]
    mass: 78.960000
    reduced_to: 129
  - symbol: Se # 140
    coordinates: [  0.375000000000000,  0.125000000000000,  0.421933445776346 ]
    mass: 78.960000
    reduced_to: 129
  - symbol: Se # 141
    coordinates: [  0.500000000000000,  0.125000000000000,  0.421933445776346 ]
    mass: 78.960000
    reduced_to: 129
  - symbol: Se # 142
    coordinates: [  0.625000000000000,  0.125000000000000,  0.421933445776346 ]
    mass: 78.960000
    reduced_to: 129
  - symbol: Se # 143
    coordinates: [  0.750000000000000,  0.125000000000000,  0.421933445776346 ]
    mass: 78.960000
    reduced_to: 129
  - symbol: Se # 144
    coordinates: [  0.875000000000000,  0.125000000000000,  0.421933445776346 ]
    mass: 78.960000
    reduced_to: 129
  - symbol: Se # 145
    coordinates: [  0.000000000000000,  0.250000000000000,  0.421933445776346 ]
    mass: 78.960000
    reduced_to: 129
  - symbol: Se # 146
    coordinates: [  0.125000000000000,  0.250000000000000,  0.421933445776346 ]
    mass: 78.960000
    reduced_to: 129
  - symbol: Se # 147
    coordinates: [  0.250000000000000,  0.250000000000000,  0.421933445776346 ]
    mass: 78.960000
    reduced_to: 129
  - symbol: Se # 148
    coordinates: [  0.375000000000000,  0.250000000000000,  0.421933445776346 ]
    mass: 78.960000
    reduced_to: 129
  - symbol: Se # 149
    coordinates: [  0.500000000000000,  0.250000000000000,  0.421933445776346 ]
    mass: 78.960000
    reduced_to: 129
  - symbol: Se # 150
    coordinates: [  0.625000000000000,  0.250000000000000,  0.421933445776346 ]
    mass: 78.960000
    reduced_to: 129
  - symbol: Se # 151
    coordinates: [  0.750000000000000,  0.250000000000000,  0.421933445776346 ]
    mass: 78.960000
    reduced_to: 129
  - symbol: Se # 152
    coordinates: [  0.875000000000000,  0.250000000000000,  0.421933445776346 ]
    mass: 78.960000
    reduced_to: 129
  - symbol: Se # 153
    coordinates: [  0.000000000000000,  0.375000000000000,  0.421933445776346 ]
    mass: 78.960000
    reduced_to: 129
  - symbol: Se # 154
    coordinates: [  0.125000000000000,  0.375000000000000,  0.421933445776346 ]
    mass: 78.960000
    reduced_to: 129
  - symbol: Se # 155
    coordinates: [  0.250000000000000,  0.375000000000000,  0.421933445776346 ]
    mass: 78.960000
    reduced_to: 129
  - symbol: Se # 156
    coordinates: [  0.375000000000000,  0.375000000000000,  0.421933445776346 ]
    mass: 78.960000
    reduced_to: 129
  - symbol: Se # 157
    coordinates: [  0.500000000000000,  0.375000000000000,  0.421933445776346 ]
    mass: 78.960000
    reduced_to: 129
  - symbol: Se # 158
    coordinates: [  0.625000000000000,  0.375000000000000,  0.421933445776346 ]
    mass: 78.960000
    reduced_to: 129
  - symbol: Se # 159
    coordinates: [  0.750000000000000,  0.375000000000000,  0.421933445776346 ]
    mass: 78.960000
    reduced_to: 129
  - symbol: Se # 160
    coordinates: [  0.875000000000000,  0.375000000000000,  0.421933445776346 ]
    mass: 78.960000
    reduced_to: 129
  - symbol: Se # 161
    coordinates: [  0.000000000000000,  0.500000000000000,  0.421933445776346 ]
    mass: 78.960000
    reduced_to: 129
  - symbol: Se # 162
    coordinates: [  0.125000000000000,  0.500000000000000,  0.421933445776346 ]
    mass: 78.960000
    reduced_to: 129
  - symbol: Se # 163
    coordinates: [  0.250000000000000,  0.500000000000000,  0.421933445776346 ]
    mass: 78.960000
    reduced_to: 129
  - symbol: Se # 164
    coordinates: [  0.375000000000000,  0.500000000000000,  0.421933445776346 ]
    mass: 78.960000
    reduced_to: 129
  - symbol: Se # 165
    coordinates: [  0.500000000000000,  0.500000000000000,  0.421933445776346 ]
    mass: 78.960000
    reduced_to: 129
  - symbol: Se # 166
    coordinates: [  0.625000000000000,  0.500000000000000,  0.421933445776346 ]
    mass: 78.960000
    reduced_to: 129
  - symbol: Se # 167
    coordinates: [  0.750000000000000,  0.500000000000000,  0.421933445776346 ]
    mass: 78.960000
    reduced_to: 129
  - symbol: Se # 168
    coordinates: [  0.875000000000000,  0.500000000000000,  0.421933445776346 ]
    mass: 78.960000
    reduced_to: 129
  - symbol: Se # 169
    coordinates: [  0.000000000000000,  0.625000000000000,  0.421933445776346 ]
    mass: 78.960000
    reduced_to: 129
  - symbol: Se # 170
    coordinates: [  0.125000000000000,  0.625000000000000,  0.421933445776346 ]
    mass: 78.960000
    reduced_to: 129
  - symbol: Se # 171
    coordinates: [  0.250000000000000,  0.625000000000000,  0.421933445776346 ]
    mass: 78.960000
    reduced_to: 129
  - symbol: Se # 172
    coordinates: [  0.375000000000000,  0.625000000000000,  0.421933445776346 ]
    mass: 78.960000
    reduced_to: 129
  - symbol: Se # 173
    coordinates: [  0.500000000000000,  0.625000000000000,  0.421933445776346 ]
    mass: 78.960000
    reduced_to: 129
  - symbol: Se # 174
    coordinates: [  0.625000000000000,  0.625000000000000,  0.421933445776346 ]
    mass: 78.960000
    reduced_to: 129
  - symbol: Se # 175
    coordinates: [  0.750000000000000,  0.625000000000000,  0.421933445776346 ]
    mass: 78.960000
    reduced_to: 129
  - symbol: Se # 176
    coordinates: [  0.875000000000000,  0.625000000000000,  0.421933445776346 ]
    mass: 78.960000
    reduced_to: 129
  - symbol: Se # 177
    coordinates: [  0.000000000000000,  0.750000000000000,  0.421933445776346 ]
    mass: 78.960000
    reduced_to: 129
  - symbol: Se # 178
    coordinates: [  0.125000000000000,  0.750000000000000,  0.421933445776346 ]
    mass: 78.960000
    reduced_to: 129
  - symbol: Se # 179
    coordinates: [  0.250000000000000,  0.750000000000000,  0.421933445776346 ]
    mass: 78.960000
    reduced_to: 129
  - symbol: Se # 180
    coordinates: [  0.375000000000000,  0.750000000000000,  0.421933445776346 ]
    mass: 78.960000
    reduced_to: 129
  - symbol: Se # 181
    coordinates: [  0.500000000000000,  0.750000000000000,  0.421933445776346 ]
    mass: 78.960000
    reduced_to: 129
  - symbol: Se # 182
    coordinates: [  0.625000000000000,  0.750000000000000,  0.421933445776346 ]
    mass: 78.960000
    reduced_to: 129
  - symbol: Se # 183
    coordinates: [  0.750000000000000,  0.750000000000000,  0.421933445776346 ]
    mass: 78.960000
    reduced_to: 129
  - symbol: Se # 184
    coordinates: [  0.875000000000000,  0.750000000000000,  0.421933445776346 ]
    mass: 78.960000
    reduced_to: 129
  - symbol: Se # 185
    coordinates: [  0.000000000000000,  0.875000000000000,  0.421933445776346 ]
    mass: 78.960000
    reduced_to: 129
  - symbol: Se # 186
    coordinates: [  0.125000000000000,  0.875000000000000,  0.421933445776346 ]
    mass: 78.960000
    reduced_to: 129
  - symbol: Se # 187
    coordinates: [  0.250000000000000,  0.875000000000000,  0.421933445776346 ]
    mass: 78.960000
    reduced_to: 129
  - symbol: Se # 188
    coordinates: [  0.375000000000000,  0.875000000000000,  0.421933445776346 ]
    mass: 78.960000
    reduced_to: 129
  - symbol: Se # 189
    coordinates: [  0.500000000000000,  0.875000000000000,  0.421933445776346 ]
    mass: 78.960000
    reduced_to: 129
  - symbol: Se # 190
    coordinates: [  0.625000000000000,  0.875000000000000,  0.421933445776346 ]
    mass: 78.960000
    reduced_to: 129
  - symbol: Se # 191
    coordinates: [  0.750000000000000,  0.875000000000000,  0.421933445776346 ]
    mass: 78.960000
    reduced_to: 129
  - symbol: Se # 192
    coordinates: [  0.875000000000000,  0.875000000000000,  0.421933445776346 ]
    mass: 78.960000
    reduced_to: 129

displacements:
- atom:    1
  displacement:
    [   0.0077500836276309,  0.0000000000000000,  0.0063195097725004 ]
- atom:   65
  displacement:
    [   0.0077500836276309,  0.0000000000000000,  0.0063195097725004 ]
- atom:   65
  displacement:
    [  -0.0077500836276309,  0.0000000000000000, -0.0063195097725004 ]
