 1444

    1
0.0000000000e+00 0.0000000000e+00 0.0000000000e+00
0.0000000000e+00 0.0000000000e+00 0.0000000000e+00
     1      1      1
 1  1  1     0.0000000000e+00
 1  1  2    -5.0243554105e+01
 1  1  3    -3.1968420947e+01
 1  2  1    -5.0243554105e+01
 1  2  2     0.0000000000e+00
 1  2  3     0.0000000000e+00
 1  3  1    -3.1968420947e+01
 1  3  2     0.0000000000e+00
 1  3  3     0.0000000000e+00
 2  1  1    -5.0243554105e+01
 2  1  2     0.0000000000e+00
 2  1  3     0.0000000000e+00
 2  2  1     0.0000000000e+00
 2  2  2     5.0243554105e+01
 2  2  3    -3.1968420947e+01
 2  3  1     0.0000000000e+00
 2  3  2    -3.1968420947e+01
 2  3  3     0.0000000000e+00
 3  1  1    -3.1968420947e+01
 3  1  2     0.0000000000e+00
 3  1  3     0.0000000000e+00
 3  2  1     0.0000000000e+00
 3  2  2    -3.1968420947e+01
 3  2  3     0.0000000000e+00
 3  3  1     0.0000000000e+00
 3  3  2     0.0000000000e+00
 3  3  3     6.8136508935e+01

    2
0.0000000000e+00 0.0000000000e+00 0.0000000000e+00
0.0000000000e+00 0.0000000000e+00 0.0000000000e+00
     1      1      2
 1  1  1     1.5676779768e-01
 1  1  2     2.2845025488e-01
 1  1  3     2.8249182566e-02
 1  2  1     2.8860393133e-01
 1  2  2     1.7526191270e-02
 1  2  3    -4.4076408475e-01
 1  3  1     6.6304839061e-01
 1  3  2    -7.5200926057e-01
 1  3  3    -1.4212109487e+00
 2  1  1     2.8860393133e-01
 2  1  2     1.7526191270e-02
 2  1  3    -4.4076408475e-01
 2  2  1     1.2171541514e-01
 2  2  2    -3.8923261277e-01
 2  2  3    -4.8070134340e-01
 2  3  1    -7.5200926057e-01
 2  3  2    -2.0529710743e-01
 2  3  3     8.2053652381e-01
 3  1  1     6.6304839061e-01
 3  1  2    -7.5200926057e-01
 3  1  3    -1.4212109487e+00
 3  2  1    -7.5200926057e-01
 3  2  2    -2.0529710743e-01
 3  2  3     8.2053652381e-01
 3  3  1    -2.3544933917e+00
 3  3  2     1.3593673935e+00
 3  3  3     4.6621558623e-01

    3
0.0000000000e+00 0.0000000000e+00 0.0000000000e+00
0.0000000000e+00 0.0000000000e+00 0.0000000000e+00
     1      1      3
 1  1  1     0.0000000000e+00
 1  1  2     1.0572790041e-01
 1  1  3     2.5592706455e-01
 1  2  1     1.0572790041e-01
 1  2  2     0.0000000000e+00
 1  2  3     0.0000000000e+00
 1  3  1     2.6173309154e-01
 1  3  2     0.0000000000e+00
 1  3  3     0.0000000000e+00
 2  1  1     1.0572790041e-01
 2  1  2     0.0000000000e+00
 2  1  3     0.0000000000e+00
 2  2  1     0.0000000000e+00
 2  2  2    -1.0572790041e-01
 2  2  3     2.5592706455e-01
 2  3  1     0.0000000000e+00
 2  3  2     2.6173309154e-01
 2  3  3     0.0000000000e+00
 3  1  1     2.6173309154e-01
 3  1  2     0.0000000000e+00
 3  1  3     0.0000000000e+00
 3  2  1     0.0000000000e+00
 3  2  2     2.6173309154e-01
 3  2  3     0.0000000000e+00
 3  3  1     0.0000000000e+00
 3  3  2     0.0000000000e+00
 3  3  3    -2.7630609893e+00

    4
0.0000000000e+00 0.0000000000e+00 0.0000000000e+00
0.0000000000e+00 0.0000000000e+00 0.0000000000e+00
     1      1      4
 1  1  1    -3.2531479093e+01
 1  1  2     2.1886806614e+01
 1  1  3     1.4355130358e+01
 1  2  1     2.2118620817e+01
 1  2  2    -1.0977664357e+01
 1  2  3    -8.7187276020e+00
 1  3  1     1.4753895025e+01
 1  3  2    -8.9316530223e+00
 1  3  3    -3.2108457068e+00
 2  1  1     2.2118620817e+01
 2  1  2    -1.0977664357e+01
 2  1  3    -8.7187276020e+00
 2  2  1    -1.0576150379e+01
 2  2  2     3.0013948657e+00
 2  2  3     4.2876109017e+00
 2  3  1    -8.9316530223e+00
 2  3  2     4.4405104718e+00
 2  3  3     1.8537826332e+00
 3  1  1     1.4753895025e+01
 3  1  2    -8.9316530223e+00
 3  1  3    -3.2108457068e+00
 3  2  1    -8.9316530223e+00
 3  2  2     4.4405104718e+00
 3  2  3     1.8537826332e+00
 3  3  1    -2.9403336542e+00
 3  3  2     1.6976024268e+00
 3  3  3    -1.5072155184e+00

    5
0.0000000000e+00 0.0000000000e+00 0.0000000000e+00
3.1158475027e+00 0.0000000000e+00 0.0000000000e+00
     1      1      1
 1  1  1    -2.8712795675e+00
 1  1  2     7.9177636719e-01
 1  1  3     4.7086808314e-01
 1  2  1    -1.7636915812e-01
 1  2  2     5.3970989011e-01
 1  2  3    -1.3439960432e-01
 1  3  1    -6.9716780858e-02
 1  3  2    -1.2670236578e-01
 1  3  3     6.9483755443e-01
 2  1  1    -1.7636915812e-01
 2  1  2     5.3970989011e-01
 2  1  3    -1.3439960432e-01
 2  2  1     8.4592711497e-01
 2  2  2     4.1259307695e-01
 2  2  3    -3.2332691322e-02
 2  3  1     7.0736440880e-03
 2  3  2     1.1548904717e-02
 2  3  3     1.2311275831e-01
 3  1  1    -6.9716780858e-02
 3  1  2    -1.2670236578e-01
 3  1  3     6.9483755443e-01
 3  2  1     7.0736440880e-03
 3  2  2     1.1548904717e-02
 3  2  3     1.2311275831e-01
 3  3  1     8.4903265329e-01
 3  3  2     1.2515215094e-01
 3  3  3     3.3473592437e-01

    6
0.0000000000e+00 0.0000000000e+00 0.0000000000e+00
-3.1158475027e+00 0.0000000000e+00 0.0000000000e+00
     1      1      1
 1  1  1     2.8712795675e+00
 1  1  2     7.9177636719e-01
 1  1  3     4.7086808314e-01
 1  2  1    -1.7636915812e-01
 1  2  2    -5.3970989011e-01
 1  2  3     1.3439960432e-01
 1  3  1    -6.9716780858e-02
 1  3  2     1.2670236578e-01
 1  3  3    -6.9483755443e-01
 2  1  1    -1.7636915812e-01
 2  1  2    -5.3970989011e-01
 2  1  3     1.3439960432e-01
 2  2  1    -8.4592711497e-01
 2  2  2     4.1259307695e-01
 2  2  3    -3.2332691322e-02
 2  3  1    -7.0736440880e-03
 2  3  2     1.1548904717e-02
 2  3  3     1.2311275831e-01
 3  1  1    -6.9716780858e-02
 3  1  2     1.2670236578e-01
 3  1  3    -6.9483755443e-01
 3  2  1    -7.0736440880e-03
 3  2  2     1.1548904717e-02
 3  2  3     1.2311275831e-01
 3  3  1    -8.4903265329e-01
 3  3  2     1.2515215094e-01
 3  3  3     3.3473592437e-01

    7
0.0000000000e+00 0.0000000000e+00 0.0000000000e+00
-3.1158475027e+00 0.0000000000e+00 0.0000000000e+00
     1      1      2
 1  1  1    -1.5676779768e-01
 1  1  2     2.2845025488e-01
 1  1  3     2.8249182566e-02
 1  2  1     2.8860393133e-01
 1  2  2    -1.7526191270e-02
 1  2  3     4.4076408475e-01
 1  3  1     6.6304839061e-01
 1  3  2     7.5200926057e-01
 1  3  3     1.4212109487e+00
 2  1  1     2.8860393133e-01
 2  1  2    -1.7526191270e-02
 2  1  3     4.4076408475e-01
 2  2  1    -1.2171541514e-01
 2  2  2    -3.8923261277e-01
 2  2  3    -4.8070134340e-01
 2  3  1     7.5200926057e-01
 2  3  2    -2.0529710743e-01
 2  3  3     8.2053652381e-01
 3  1  1     6.6304839061e-01
 3  1  2     7.5200926057e-01
 3  1  3     1.4212109487e+00
 3  2  1     7.5200926057e-01
 3  2  2    -2.0529710743e-01
 3  2  3     8.2053652381e-01
 3  3  1     2.3544933917e+00
 3  3  2     1.3593673935e+00
 3  3  3     4.6621558623e-01

    8
0.0000000000e+00 0.0000000000e+00 0.0000000000e+00
-3.1158475027e+00 0.0000000000e+00 0.0000000000e+00
     1      1      4
 1  1  1     3.2531479093e+01
 1  1  2     2.1886806614e+01
 1  1  3     1.4355130358e+01
 1  2  1     2.2118620817e+01
 1  2  2     1.0977664357e+01
 1  2  3     8.7187276020e+00
 1  3  1     1.4753895025e+01
 1  3  2     8.9316530223e+00
 1  3  3     3.2108457068e+00
 2  1  1     2.2118620817e+01
 2  1  2     1.0977664357e+01
 2  1  3     8.7187276020e+00
 2  2  1     1.0576150379e+01
 2  2  2     3.0013948657e+00
 2  2  3     4.2876109017e+00
 2  3  1     8.9316530223e+00
 2  3  2     4.4405104718e+00
 2  3  3     1.8537826332e+00
 3  1  1     1.4753895025e+01
 3  1  2     8.9316530223e+00
 3  1  3     3.2108457068e+00
 3  2  1     8.9316530223e+00
 3  2  2     4.4405104718e+00
 3  2  3     1.8537826332e+00
 3  3  1     2.9403336542e+00
 3  3  2     1.6976024268e+00
 3  3  3    -1.5072155184e+00

    9
0.0000000000e+00 0.0000000000e+00 0.0000000000e+00
-1.5579237513e+00 2.6984030916e+00 0.0000000000e+00
     1      1      1
 1  1  1    -7.2613673065e-01
 1  1  2    -6.9187703931e-01
 1  1  3    -2.2925969306e-02
 1  2  1    -4.7299617246e-01
 1  2  2     1.6873456546e+00
 1  2  3    -1.5069252479e-01
 1  3  1    -6.0568272681e-02
 1  3  2    -1.7917504295e-03
 1  3  3    -4.5403755344e-01
 2  1  1    -4.7299617246e-01
 2  1  2     1.6873456546e+00
 2  1  3    -1.5069252479e-01
 2  2  1     6.9579842273e-01
 2  2  2    -1.6643143582e+00
 2  2  3     4.6146136113e-01
 2  3  1     1.3198425944e-01
 2  3  2     2.4003965402e-03
 2  3  3     5.4019059448e-01
 3  1  1    -6.0568272681e-02
 3  1  2    -1.7917504295e-03
 3  1  3    -4.5403755344e-01
 3  2  1     1.3198425944e-01
 3  2  2     2.4003965402e-03
 3  2  3     5.4019059448e-01
 3  3  1    -5.3290126870e-01
 3  3  2     6.7270777092e-01
 3  3  3     3.3473592437e-01

   10
0.0000000000e+00 0.0000000000e+00 0.0000000000e+00
-1.5579237513e+00 2.6984030916e+00 0.0000000000e+00
     1      1      2
 1  1  1     0.0000000000e+00
 1  1  2     4.3926753797e-01
 1  1  3    -7.3517660638e-01
 1  2  1     3.1896018507e-01
 1  2  2     0.0000000000e+00
 1  2  3     0.0000000000e+00
 1  3  1    -6.3946985646e-01
 1  3  2     0.0000000000e+00
 1  3  3     0.0000000000e+00
 2  1  1     3.1896018507e-01
 2  1  2     0.0000000000e+00
 2  1  3     0.0000000000e+00
 2  2  1     0.0000000000e+00
 2  2  2    -1.1770282219e-01
 2  2  3     2.8272444555e-01
 2  3  1     0.0000000000e+00
 2  3  2     1.0972211396e+00
 2  3  3    -1.6410730476e+00
 3  1  1    -6.3946985646e-01
 3  1  2     0.0000000000e+00
 3  1  3     0.0000000000e+00
 3  2  1     0.0000000000e+00
 3  2  2     1.0972211396e+00
 3  2  3    -1.6410730476e+00
 3  3  1     0.0000000000e+00
 3  3  2    -2.7187347870e+00
 3  3  3     4.6621558623e-01

   11
0.0000000000e+00 0.0000000000e+00 0.0000000000e+00
-1.5579237513e+00 2.6984030916e+00 0.0000000000e+00
     1      1      4
 1  1  1     0.0000000000e+00
 1  1  2     3.5683768087e+00
 1  1  3    -7.4614882632e-01
 1  2  1     3.1047484029e+00
 1  2  2     0.0000000000e+00
 1  2  3     0.0000000000e+00
 1  3  1    -7.1618180490e-01
 1  3  2     0.0000000000e+00
 1  3  3     0.0000000000e+00
 2  1  1     3.1047484029e+00
 2  1  2     0.0000000000e+00
 2  1  3     0.0000000000e+00
 2  2  1     0.0000000000e+00
 2  2  2    -5.3344779769e+01
 2  2  3     1.9388890086e+01
 2  3  1     0.0000000000e+00
 2  3  2     1.9910587302e+01
 2  3  3    -3.7075652663e+00
 3  1  1    -7.1618180490e-01
 3  1  2     0.0000000000e+00
 3  1  3     0.0000000000e+00
 3  2  1     0.0000000000e+00
 3  2  2     1.9910587302e+01
 3  2  3    -3.7075652663e+00
 3  3  1     0.0000000000e+00
 3  3  2    -3.3952048535e+00
 3  3  3    -1.5072155184e+00

   12
0.0000000000e+00 0.0000000000e+00 0.0000000000e+00
1.5579237513e+00 2.6984030916e+00 0.0000000000e+00
     1      1      1
 1  1  1     7.2613673065e-01
 1  1  2    -6.9187703931e-01
 1  1  3    -2.2925969306e-02
 1  2  1    -4.7299617246e-01
 1  2  2    -1.6873456546e+00
 1  2  3     1.5069252479e-01
 1  3  1    -6.0568272681e-02
 1  3  2     1.7917504295e-03
 1  3  3     4.5403755344e-01
 2  1  1    -4.7299617246e-01
 2  1  2    -1.6873456546e+00
 2  1  3     1.5069252479e-01
 2  2  1    -6.9579842273e-01
 2  2  2    -1.6643143582e+00
 2  2  3     4.6146136113e-01
 2  3  1    -1.3198425944e-01
 2  3  2     2.4003965402e-03
 2  3  3     5.4019059448e-01
 3  1  1    -6.0568272681e-02
 3  1  2     1.7917504295e-03
 3  1  3     4.5403755344e-01
 3  2  1    -1.3198425944e-01
 3  2  2     2.4003965402e-03
 3  2  3     5.4019059448e-01
 3  3  1     5.3290126870e-01
 3  3  2     6.7270777092e-01
 3  3  3     3.3473592437e-01

   13
0.0000000000e+00 0.0000000000e+00 0.0000000000e+00
1.5579237513e+00 2.6984030916e+00 0.0000000000e+00
     1      1      4
 1  1  1     2.5846429982e-01
 1  1  2     3.2232297965e-01
 1  1  3    -9.7440608065e-02
 1  2  1     1.7643713854e-01
 1  2  2     1.9275369747e-03
 1  2  3    -8.5520298556e-02
 1  3  1    -1.2562704541e-01
 1  3  2    -1.2292813534e-01
 1  3  3    -1.3397742200e-01
 2  1  1     1.7643713854e-01
 2  1  2     1.9275369747e-03
 2  1  3    -8.5520298556e-02
 2  2  1     2.5460922587e-01
 2  2  2    -2.6099841476e-02
 2  2  3     1.3097267194e-03
 2  3  1    -1.2292813534e-01
 2  3  2     1.6318138646e-02
 2  3  3    -7.7351900658e-02
 3  1  1    -1.2562704541e-01
 3  1  2    -1.2292813534e-01
 3  1  3    -1.3397742200e-01
 3  2  1    -1.2292813534e-01
 3  2  2     1.6318138646e-02
 3  2  3    -7.7351900658e-02
 3  3  1    -1.8508942834e-01
 3  3  2    -1.0686143128e-01
 3  3  3     2.8011193487e-02

   14
0.0000000000e+00 0.0000000000e+00 0.0000000000e+00
-4.6737712540e+00 2.6984030916e+00 0.0000000000e+00
     1      1      4
 1  1  1    -2.5846429982e-01
 1  1  2     3.2232297965e-01
 1  1  3    -9.7440608065e-02
 1  2  1     1.7643713854e-01
 1  2  2    -1.9275369747e-03
 1  2  3     8.5520298556e-02
 1  3  1    -1.2562704541e-01
 1  3  2     1.2292813534e-01
 1  3  3     1.3397742200e-01
 2  1  1     1.7643713854e-01
 2  1  2    -1.9275369747e-03
 2  1  3     8.5520298556e-02
 2  2  1    -2.5460922587e-01
 2  2  2    -2.6099841476e-02
 2  2  3     1.3097267194e-03
 2  3  1     1.2292813534e-01
 2  3  2     1.6318138646e-02
 2  3  3    -7.7351900658e-02
 3  1  1    -1.2562704541e-01
 3  1  2     1.2292813534e-01
 3  1  3     1.3397742200e-01
 3  2  1     1.2292813534e-01
 3  2  2     1.6318138646e-02
 3  2  3    -7.7351900658e-02
 3  3  1     1.8508942834e-01
 3  3  2    -1.0686143128e-01
 3  3  3     2.8011193487e-02

   15
0.0000000000e+00 0.0000000000e+00 0.0000000000e+00
1.5579237513e+00 -2.6984030916e+00 0.0000000000e+00
     1      1      1
 1  1  1     5.3548880271e-05
 1  1  2    -8.0065597380e-02
 1  1  3     2.0986097389e-01
 1  2  1     6.6919906109e-01
 1  2  2    -1.3704143022e+00
 1  2  3    -2.8509212911e-01
 1  3  1     4.3033239328e-02
 1  3  2     7.2169898593e-02
 1  3  3     2.4080000099e-01
 2  1  1     6.6919906109e-01
 2  1  2    -1.3704143022e+00
 2  1  3    -2.8509212911e-01
 2  2  1    -2.0557443093e+00
 2  2  2     1.2318875508e+00
 2  2  3     2.2867441793e-01
 2  3  1    -6.1606111276e-02
 2  3  2    -1.0120111547e-01
 2  3  3    -6.6330335279e-01
 3  1  1     4.3033239328e-02
 3  1  2     7.2169898593e-02
 3  1  3     2.4080000099e-01
 3  2  1    -6.1606111276e-02
 3  2  2    -1.0120111547e-01
 3  2  3    -6.6330335279e-01
 3  3  1     3.1613138459e-01
 3  3  2    -7.9785992186e-01
 3  3  3     3.3473592437e-01

   16
0.0000000000e+00 0.0000000000e+00 0.0000000000e+00
-1.5579237513e+00 -2.6984030916e+00 0.0000000000e+00
     1      1      1
 1  1  1    -5.3548880271e-05
 1  1  2    -8.0065597380e-02
 1  1  3     2.0986097389e-01
 1  2  1     6.6919906109e-01
 1  2  2     1.3704143022e+00
 1  2  3     2.8509212911e-01
 1  3  1     4.3033239328e-02
 1  3  2    -7.2169898593e-02
 1  3  3    -2.4080000099e-01
 2  1  1     6.6919906109e-01
 2  1  2     1.3704143022e+00
 2  1  3     2.8509212911e-01
 2  2  1     2.0557443093e+00
 2  2  2     1.2318875508e+00
 2  2  3     2.2867441793e-01
 2  3  1     6.1606111276e-02
 2  3  2    -1.0120111547e-01
 2  3  3    -6.6330335279e-01
 3  1  1     4.3033239328e-02
 3  1  2    -7.2169898593e-02
 3  1  3    -2.4080000099e-01
 3  2  1     6.1606111276e-02
 3  2  2    -1.0120111547e-01
 3  2  3    -6.6330335279e-01
 3  3  1    -3.1613138459e-01
 3  3  2    -7.9785992186e-01
 3  3  3     3.3473592437e-01

   17
0.0000000000e+00 0.0000000000e+00 0.0000000000e+00
-1.5579237513e+00 -2.6984030916e+00 0.0000000000e+00
     1      1      4
 1  1  1     0.0000000000e+00
 1  1  2    -1.1867313564e-01
 1  1  3     5.0684894112e-02
 1  2  1     1.7309854657e-01
 1  2  2     0.0000000000e+00
 1  2  3     0.0000000000e+00
 1  3  1     8.7290730673e-02
 1  3  2     0.0000000000e+00
 1  3  3     0.0000000000e+00
 2  1  1     1.7309854657e-01
 2  1  2     0.0000000000e+00
 2  1  3     0.0000000000e+00
 2  2  1     0.0000000000e+00
 2  2  2    -4.7377314071e-01
 2  2  3    -1.4681577546e-01
 2  3  1     0.0000000000e+00
 2  3  2    -1.9659963743e-01
 2  3  3     1.5470380132e-01
 3  1  1     8.7290730673e-02
 3  1  2     0.0000000000e+00
 3  1  3     0.0000000000e+00
 3  2  1     0.0000000000e+00
 3  2  2    -1.9659963743e-01
 3  2  3     1.5470380132e-01
 3  3  1     0.0000000000e+00
 3  3  2     2.1372286255e-01
 3  3  3     2.8011193487e-02

   18
0.0000000000e+00 0.0000000000e+00 0.0000000000e+00
0.0000000000e+00 0.0000000000e+00 4.9874165976e+00
     1      1      2
 1  1  1     7.3672420409e-01
 1  1  2     2.9388881046e-01
 1  1  3    -6.5114086473e-01
 1  2  1     2.5960109606e-01
 1  2  2     2.6537075583e-01
 1  2  3     7.1156361365e-01
 1  3  1    -5.9837415947e-01
 1  3  2     7.0191638234e-01
 1  3  3    -1.5300227994e+00
 2  1  1     2.5960109606e-01
 2  1  2     2.6537075583e-01
 2  1  3     7.1156361365e-01
 2  2  1     2.0598269242e-01
 2  2  2    -8.3816089092e-01
 2  2  3     1.7050202304e-01
 2  3  1     7.0191638234e-01
 2  3  2     2.1212906511e-01
 2  3  3     8.8335907509e-01
 3  1  1    -5.9837415947e-01
 3  1  2     7.0191638234e-01
 3  1  3    -1.5300227994e+00
 3  2  1     7.0191638234e-01
 3  2  2     2.1212906511e-01
 3  2  3     8.8335907509e-01
 3  3  1    -7.5491731814e-01
 3  3  2     4.3585171684e-01
 3  3  3    -1.4445572153e+00

   19
0.0000000000e+00 0.0000000000e+00 0.0000000000e+00
0.0000000000e+00 0.0000000000e+00 4.9874165976e+00
     1      1      3
 1  1  1     0.0000000000e+00
 1  1  2     3.1313888830e-01
 1  1  3     3.2677520632e+00
 1  2  1     3.1313888830e-01
 1  2  2     0.0000000000e+00
 1  2  3     0.0000000000e+00
 1  3  1     2.6501145901e+00
 1  3  2     0.0000000000e+00
 1  3  3     0.0000000000e+00
 2  1  1     3.1313888830e-01
 2  1  2     0.0000000000e+00
 2  1  3     0.0000000000e+00
 2  2  1     0.0000000000e+00
 2  2  2    -3.1313888830e-01
 2  2  3     3.2677520632e+00
 2  3  1     0.0000000000e+00
 2  3  2     2.6501145901e+00
 2  3  3     0.0000000000e+00
 3  1  1     2.6501145901e+00
 3  1  2     0.0000000000e+00
 3  1  3     0.0000000000e+00
 3  2  1     0.0000000000e+00
 3  2  2     2.6501145901e+00
 3  2  3     0.0000000000e+00
 3  3  1     0.0000000000e+00
 3  3  2     0.0000000000e+00
 3  3  3    -5.9456769749e+01

   20
0.0000000000e+00 0.0000000000e+00 0.0000000000e+00
3.1158475027e+00 0.0000000000e+00 4.9874165976e+00
     1      1      3
 1  1  1     3.5963031745e-01
 1  1  2    -1.0303252179e-01
 1  1  3     3.2233699868e-01
 1  2  1    -2.2287196853e-02
 1  2  2    -2.5042032700e-01
 1  2  3    -5.1084243870e-02
 1  3  1     2.1581988142e-01
 1  3  2    -7.2035211714e-02
 1  3  3     2.5574966197e-02
 2  1  1    -2.2287196853e-02
 2  1  2    -2.5042032700e-01
 2  1  3    -5.1084243870e-02
 2  2  1    -2.4398669695e-01
 2  2  2    -2.5735890373e-03
 2  2  3    -8.6042345421e-02
 2  3  1     4.5731462142e-02
 2  3  2    -5.0430108165e-02
 2  3  3     7.7886635492e-02
 3  1  1     2.1581988142e-01
 3  1  2    -7.2035211714e-02
 3  1  3     2.5574966197e-02
 3  2  1     4.5731462142e-02
 3  2  2    -5.0430108165e-02
 3  2  3     7.7886635492e-02
 3  3  1     2.8492283932e-01
 3  3  2    -4.7622661496e-02
 3  3  3    -9.2075083202e-02

   21
0.0000000000e+00 0.0000000000e+00 0.0000000000e+00
-3.1158475027e+00 0.0000000000e+00 4.9874165976e+00
     1      1      2
 1  1  1    -7.3672420409e-01
 1  1  2     2.9388881046e-01
 1  1  3    -6.5114086473e-01
 1  2  1     2.5960109606e-01
 1  2  2    -2.6537075583e-01
 1  2  3    -7.1156361365e-01
 1  3  1    -5.9837415947e-01
 1  3  2    -7.0191638234e-01
 1  3  3     1.5300227994e+00
 2  1  1     2.5960109606e-01
 2  1  2    -2.6537075583e-01
 2  1  3    -7.1156361365e-01
 2  2  1    -2.0598269242e-01
 2  2  2    -8.3816089092e-01
 2  2  3     1.7050202304e-01
 2  3  1    -7.0191638234e-01
 2  3  2     2.1212906511e-01
 2  3  3     8.8335907509e-01
 3  1  1    -5.9837415947e-01
 3  1  2    -7.0191638234e-01
 3  1  3     1.5300227994e+00
 3  2  1    -7.0191638234e-01
 3  2  2     2.1212906511e-01
 3  2  3     8.8335907509e-01
 3  3  1     7.5491731814e-01
 3  3  2     4.3585171684e-01
 3  3  3    -1.4445572153e+00

   22
0.0000000000e+00 0.0000000000e+00 0.0000000000e+00
-3.1158475027e+00 0.0000000000e+00 4.9874165976e+00
     1      1      3
 1  1  1    -3.5963031745e-01
 1  1  2    -1.0303252179e-01
 1  1  3     3.2233699868e-01
 1  2  1    -2.2287196853e-02
 1  2  2     2.5042032700e-01
 1  2  3     5.1084243870e-02
 1  3  1     2.1581988142e-01
 1  3  2     7.2035211714e-02
 1  3  3    -2.5574966197e-02
 2  1  1    -2.2287196853e-02
 2  1  2     2.5042032700e-01
 2  1  3     5.1084243870e-02
 2  2  1     2.4398669695e-01
 2  2  2    -2.5735890373e-03
 2  2  3    -8.6042345421e-02
 2  3  1    -4.5731462142e-02
 2  3  2    -5.0430108165e-02
 2  3  3     7.7886635492e-02
 3  1  1     2.1581988142e-01
 3  1  2     7.2035211714e-02
 3  1  3    -2.5574966197e-02
 3  2  1    -4.5731462142e-02
 3  2  2    -5.0430108165e-02
 3  2  3     7.7886635492e-02
 3  3  1    -2.8492283932e-01
 3  3  2    -4.7622661496e-02
 3  3  3    -9.2075083202e-02

   23
0.0000000000e+00 0.0000000000e+00 0.0000000000e+00
-1.5579237513e+00 2.6984030916e+00 4.9874165976e+00
     1      1      2
 1  1  1     0.0000000000e+00
 1  1  2     6.5066129921e-01
 1  1  3     5.8132346693e-01
 1  2  1     7.1923672800e-01
 1  2  2     0.0000000000e+00
 1  2  3     0.0000000000e+00
 1  3  1     6.1738067740e-01
 1  3  2     0.0000000000e+00
 1  3  3     0.0000000000e+00
 2  1  1     7.1923672800e-01
 2  1  2     0.0000000000e+00
 2  1  3     0.0000000000e+00
 2  2  1     0.0000000000e+00
 2  2  2     4.3788286172e-01
 2  2  3    -1.0619623086e+00
 2  3  1     0.0000000000e+00
 2  3  2    -1.0036257718e+00
 2  3  3    -1.7667181502e+00
 3  1  1     6.1738067740e-01
 3  1  2     0.0000000000e+00
 3  1  3     0.0000000000e+00
 3  2  1     0.0000000000e+00
 3  2  2    -1.0036257718e+00
 3  2  3    -1.7667181502e+00
 3  3  1     0.0000000000e+00
 3  3  2    -8.7170343368e-01
 3  3  3    -1.4445572153e+00

   24
0.0000000000e+00 0.0000000000e+00 0.0000000000e+00
-1.5579237513e+00 2.6984030916e+00 4.9874165976e+00
     1      1      3
 1  1  1     2.6798589669e-01
 1  1  2     2.4952185291e-02
 1  1  3    -2.8187762321e-02
 1  2  1    -2.0992164244e-02
 1  2  2    -3.0106081977e-01
 1  2  3    -1.5129132125e-01
 1  3  1     4.7425315587e-03
 1  3  2    -1.6759702690e-01
 1  3  3    -8.0239288049e-02
 2  1  1    -2.0992164244e-02
 2  1  2    -3.0106081977e-01
 2  1  3    -1.5129132125e-01
 2  2  1    -2.3435013217e-01
 2  2  2     1.2800118327e-01
 2  2  3     2.6448241558e-01
 2  3  1    -4.9830353047e-02
 2  3  2     1.6064724169e-01
 2  3  3    -1.6794747319e-02
 3  1  1     4.7425315587e-03
 3  1  2    -1.6759702690e-01
 3  1  3    -8.0239288049e-02
 3  2  1    -4.9830353047e-02
 3  2  2     1.6064724169e-01
 3  2  3    -1.6794747319e-02
 3  3  1    -1.0121898501e-01
 3  3  2     2.7056174772e-01
 3  3  3    -9.2075083202e-02

   25
0.0000000000e+00 0.0000000000e+00 0.0000000000e+00
1.5579237513e+00 2.6984030916e+00 4.9874165976e+00
     1      1      3
 1  1  1    -2.6798589669e-01
 1  1  2     2.4952185291e-02
 1  1  3    -2.8187762321e-02
 1  2  1    -2.0992164244e-02
 1  2  2     3.0106081977e-01
 1  2  3     1.5129132125e-01
 1  3  1     4.7425315587e-03
 1  3  2     1.6759702690e-01
 1  3  3     8.0239288049e-02
 2  1  1    -2.0992164244e-02
 2  1  2     3.0106081977e-01
 2  1  3     1.5129132125e-01
 2  2  1     2.3435013217e-01
 2  2  2     1.2800118327e-01
 2  2  3     2.6448241558e-01
 2  3  1     4.9830353047e-02
 2  3  2     1.6064724169e-01
 2  3  3    -1.6794747319e-02
 3  1  1     4.7425315587e-03
 3  1  2     1.6759702690e-01
 3  1  3     8.0239288049e-02
 3  2  1     4.9830353047e-02
 3  2  2     1.6064724169e-01
 3  2  3    -1.6794747319e-02
 3  3  1     1.0121898501e-01
 3  3  2     2.7056174772e-01
 3  3  3    -9.2075083202e-02

   26
0.0000000000e+00 0.0000000000e+00 0.0000000000e+00
1.5579237513e+00 -2.6984030916e+00 4.9874165976e+00
     1      1      3
 1  1  1    -2.0072703716e-01
 1  1  2    -3.0694658344e-02
 1  1  3     6.0292743528e-02
 1  2  1    -6.5495633750e-02
 1  2  2     2.7686210453e-01
 1  2  3    -2.0237556512e-01
 1  3  1     2.7522246903e-02
 1  3  2    -6.2982227833e-02
 1  3  3    -5.4664321853e-02
 2  1  1    -6.5495633750e-02
 2  1  2     2.7686210453e-01
 2  1  3    -2.0237556512e-01
 2  2  1     3.5000642219e-01
 2  2  2    -1.6652599381e-02
 2  2  3     1.7600190973e-01
 2  3  1    -1.8074890169e-01
 2  3  2     1.3786752635e-01
 2  3  3    -6.1091888173e-02
 3  1  1     2.7522246903e-02
 3  1  2    -6.2982227833e-02
 3  1  3    -5.4664321853e-02
 3  2  1    -1.8074890169e-01
 3  2  2     1.3786752635e-01
 3  2  3    -6.1091888173e-02
 3  3  1     1.8370385431e-01
 3  3  2    -2.2293908622e-01
 3  3  3    -9.2075083202e-02

   27
0.0000000000e+00 0.0000000000e+00 0.0000000000e+00
-1.5579237513e+00 -2.6984030916e+00 4.9874165976e+00
     1      1      3
 1  1  1     2.0072703716e-01
 1  1  2    -3.0694658344e-02
 1  1  3     6.0292743528e-02
 1  2  1    -6.5495633750e-02
 1  2  2    -2.7686210453e-01
 1  2  3     2.0237556512e-01
 1  3  1     2.7522246903e-02
 1  3  2     6.2982227833e-02
 1  3  3     5.4664321853e-02
 2  1  1    -6.5495633750e-02
 2  1  2    -2.7686210453e-01
 2  1  3     2.0237556512e-01
 2  2  1    -3.5000642219e-01
 2  2  2    -1.6652599381e-02
 2  2  3     1.7600190973e-01
 2  3  1     1.8074890169e-01
 2  3  2     1.3786752635e-01
 2  3  3    -6.1091888173e-02
 3  1  1     2.7522246903e-02
 3  1  2     6.2982227833e-02
 3  1  3     5.4664321853e-02
 3  2  1     1.8074890169e-01
 3  2  2     1.3786752635e-01
 3  2  3    -6.1091888173e-02
 3  3  1    -1.8370385431e-01
 3  3  2    -2.2293908622e-01
 3  3  3    -9.2075083202e-02

   28
0.0000000000e+00 0.0000000000e+00 0.0000000000e+00
0.0000000000e+00 0.0000000000e+00 0.0000000000e+00
     1      2      1
 1  1  1     1.5676779768e-01
 1  1  2     2.8860393133e-01
 1  1  3     6.6304839061e-01
 1  2  1     2.2845025488e-01
 1  2  2     1.7526191270e-02
 1  2  3    -7.5200926057e-01
 1  3  1     2.8249182566e-02
 1  3  2    -4.4076408475e-01
 1  3  3    -1.4212109487e+00
 2  1  1     2.8860393133e-01
 2  1  2     1.2171541514e-01
 2  1  3    -7.5200926057e-01
 2  2  1     1.7526191270e-02
 2  2  2    -3.8923261277e-01
 2  2  3    -2.0529710743e-01
 2  3  1    -4.4076408475e-01
 2  3  2    -4.8070134340e-01
 2  3  3     8.2053652381e-01
 3  1  1     6.6304839061e-01
 3  1  2    -7.5200926057e-01
 3  1  3    -2.3544933917e+00
 3  2  1    -7.5200926057e-01
 3  2  2    -2.0529710743e-01
 3  2  3     1.3593673935e+00
 3  3  1    -1.4212109487e+00
 3  3  2     8.2053652381e-01
 3  3  3     4.6621558623e-01

   29
0.0000000000e+00 0.0000000000e+00 0.0000000000e+00
0.0000000000e+00 0.0000000000e+00 0.0000000000e+00
     1      2      2
 1  1  1    -7.3672420409e-01
 1  1  2    -2.5960109606e-01
 1  1  3    -5.9837415947e-01
 1  2  1    -2.5960109606e-01
 1  2  2    -2.0598269242e-01
 1  2  3     7.0191638234e-01
 1  3  1    -5.9837415947e-01
 1  3  2     7.0191638234e-01
 1  3  3     7.5491731814e-01
 2  1  1    -2.9388881046e-01
 2  1  2    -2.6537075583e-01
 2  1  3     7.0191638234e-01
 2  2  1    -2.6537075583e-01
 2  2  2     8.3816089092e-01
 2  2  3     2.1212906511e-01
 2  3  1     7.0191638234e-01
 2  3  2     2.1212906511e-01
 2  3  3    -4.3585171684e-01
 3  1  1    -6.5114086473e-01
 3  1  2     7.1156361365e-01
 3  1  3     1.5300227994e+00
 3  2  1     7.1156361365e-01
 3  2  2     1.7050202304e-01
 3  2  3    -8.8335907509e-01
 3  3  1     1.5300227994e+00
 3  3  2    -8.8335907509e-01
 3  3  3    -1.4445572153e+00

   30
0.0000000000e+00 0.0000000000e+00 0.0000000000e+00
0.0000000000e+00 0.0000000000e+00 0.0000000000e+00
     1      2      3
 1  1  1    -5.4802842044e-02
 1  1  2    -2.4423010330e-02
 1  1  3     8.5913729949e-02
 1  2  1    -4.8622871538e-02
 1  2  2    -6.8677036249e-02
 1  2  3    -9.2601706318e-02
 1  3  1     1.6487697518e-01
 1  3  2    -1.4981520152e-01
 1  3  3     3.7771873707e-02
 2  1  1     7.1328993106e-03
 2  1  2     2.7894791677e-02
 2  1  3    -9.2601706318e-02
 2  2  1    -1.4020597472e-02
 2  2  2     6.4158241662e-02
 2  2  3    -2.1013510192e-02
 2  3  1    -1.4981520152e-01
 2  3  2    -8.1147186637e-03
 2  3  3    -2.1807601453e-02
 3  1  1    -5.3615570270e-02
 3  1  2    -4.0356152979e-02
 3  1  3     2.1823233827e-01
 3  2  1    -4.0356152979e-02
 3  2  2    -1.0021484184e-01
 3  2  3    -1.2599649925e-01
 3  3  1     1.8010635967e-01
 3  3  2    -1.0398445524e-01
 3  3  3     4.0862580563e-01

   31
0.0000000000e+00 0.0000000000e+00 0.0000000000e+00
0.0000000000e+00 0.0000000000e+00 0.0000000000e+00
     1      2      4
 1  1  1     2.8600686386e-01
 1  1  2     9.8394219337e-02
 1  1  3     1.4175320736e-01
 1  2  1     9.3313128414e-02
 1  2  2    -1.2319492529e-01
 1  2  3     8.4925379302e-02
 1  3  1     6.9627649298e-01
 1  3  2    -3.5909781437e-01
 1  3  3     5.7039481487e-01
 2  1  1     2.8510667871e-01
 2  1  2     2.0900124839e-01
 2  1  3     8.4925379302e-02
 2  2  1     2.0020054076e-01
 2  2  2    -3.7910619528e-01
 2  2  3     2.3981658856e-01
 2  3  1    -3.5909781437e-01
 2  3  2     2.8162605340e-01
 2  3  3    -3.2931759991e-01
 3  1  1     5.6496347609e-01
 3  1  2    -9.0997803447e-02
 3  1  3     3.9625942977e-01
 3  2  1    -9.0997803447e-02
 3  2  2     4.5988826346e-01
 3  2  3    -2.2878048845e-01
 3  3  1    -2.0372685635e-01
 3  3  2     1.1762175535e-01
 3  3  3    -1.6556055011e-01

   32
0.0000000000e+00 0.0000000000e+00 0.0000000000e+00
3.1158475027e+00 0.0000000000e+00 0.0000000000e+00
     1      2      1
 1  1  1     0.0000000000e+00
 1  1  2    -1.8354033334e-01
 1  1  3    -1.5012633614e-01
 1  2  1    -2.3405575988e-02
 1  2  2     2.8402223826e-02
 1  2  3     3.8594242788e-03
 1  3  1    -2.5000141994e-01
 1  3  2    -1.2419814552e-01
 1  3  3     2.5720113712e-03
 2  1  1    -1.8354033334e-01
 2  1  2     0.0000000000e+00
 2  1  3     6.9125667842e-02
 2  2  1    -2.8402223826e-02
 2  2  2    -2.1302546376e-01
 2  2  3     1.2917329059e-03
 2  3  1     1.2419814552e-01
 2  3  2     2.0018391415e-01
 2  3  3     4.0759677000e-02
 3  1  1    -1.5012633614e-01
 3  1  2    -6.9125667842e-02
 3  1  3     0.0000000000e+00
 3  2  1    -3.8594242788e-03
 3  2  2     1.2917329059e-03