
     Program BANDS v.6.6 starts on 13Jun2022 at 22:26: 9 

     This program is part of the open-source Quantum ESPRESSO suite
     for quantum simulation of materials; please cite
         "P. Giannozzi et al., J. Phys.:Condens. Matter 21 395502 (2009);
         "P. Giannozzi et al., J. Phys.:Condens. Matter 29 465901 (2017);
          URL http://www.quantum-espresso.org", 
     in publications or presentations arising from this work. More details at
     http://www.quantum-espresso.org/quote

     Parallel version (MPI), running on    40 processors

     MPI processes distributed on     1 nodes
     R & G space division:  proc/nbgrp/npool/nimage =      40
     Fft bands division:     nmany     =       1

     Reading xml data from directory:

     ./mose2.save/
     file Mo.pbesol-spn-kjpaw_psl.1.0.0.UPF: wavefunction(s)  4S 4D renormalized
     file Se.pbesol-dn-kjpaw_psl.1.0.0.UPF: wavefunction(s)  4S 4P 3D renormalized

     IMPORTANT: XC functional enforced from input :
     Exchange-correlation= PBESOL
                           (   1   4  10   8   0   0   0)
     Any further DFT definition will be discarded
     Please, verify this is what you really want

 
     Parallelization info
     --------------------
     sticks:   dense  smooth     PW     G-vecs:    dense   smooth      PW
     Min          26      26      7                 5708     5708     831
     Max          27      27      8                 5743     5743     874
     Sum        1069    1069    301               229233   229233   34069
 

     negative rho (up, down):  1.202E-04 0.000E+00
     Reading collected, re-writing distributed wavefunctions
     high-symmetry point:  0.0000 0.0000 0.0000   x coordinate   0.0000
     high-symmetry point:  0.5000 0.2887 0.0000   x coordinate   0.5774

     Plottable bands (eV) written to file seg1.dat.gnu
     Bands written to file seg1.dat

 **************************************************************************

                    xk=(   0.00000,   0.00000,   0.00000  )

     point group D_3h (-62m)
     there are  6 classes
     the character table:

       E     2C3   3C2   s_h   2S3   3s_v 
A'_1   1.00  1.00  1.00  1.00  1.00  1.00
A'_2   1.00  1.00 -1.00  1.00  1.00 -1.00
E'     2.00 -1.00  0.00  2.00 -1.00  0.00
A''1   1.00  1.00  1.00 -1.00 -1.00 -1.00
A''2   1.00  1.00 -1.00 -1.00 -1.00  1.00
E''    2.00 -1.00  0.00 -2.00  1.00  0.00

     the symmetry operations in each class and the name of the first element:

     E        1
                                                                 
     2C3      3    4
                                                                 
     3C2      2    6    5
                                                                 
     s_h      7
                                                                 
     2S3      9   10
                                                                 
     3s_v     8   11   12
                                                                 

     Band symmetry, D_3h (-62m) point group:

     e(  1 -  1) =    -61.86220  eV     1   --> A'_1           
     e(  2 -  3) =    -48.55761  eV     2   --> E'             
     e(  4 -  5) =    -48.55723  eV     2   --> E''            
     e(  6 -  7) =    -48.51575  eV     2   --> E'             
     e(  8 -  9) =    -48.51476  eV     2   --> E''            
     e( 10 - 10) =    -48.49931  eV     1   --> A'_1           
     e( 11 - 11) =    -48.49714  eV     1   --> A''2           
     e( 12 - 12) =    -36.06893  eV     1   --> A''2           
     e( 13 - 14) =    -35.84890  eV     2   --> E'             
     e( 15 - 15) =    -15.53233  eV     1   --> A'_1           
     e( 16 - 16) =    -14.48895  eV     1   --> A''2           
     e( 17 - 17) =     -6.72119  eV     1   --> A'_1           
     e( 18 - 19) =     -3.29423  eV     2   --> E'             
     e( 20 - 20) =     -3.10139  eV     1   --> A''2           
     e( 21 - 22) =     -2.26510  eV     2   --> E''            
     e( 23 - 23) =     -1.50969  eV     1   --> A'_1           
     e( 24 - 25) =      1.84229  eV     2   --> E''            
     e( 26 - 27) =      2.09447  eV     2   --> E'             
     e( 28 - 28) =      3.60411  eV     1   --> A'_1           
     e( 29 - 29) =      3.84821  eV     1   --> A''2           
     e( 30 - 30) =      4.10962  eV     1   --> A'_1           
     e( 31 - 31) =      4.72353  eV     1   --> A''2           
     e( 32 - 32) =      4.86167  eV     1   --> A'_1           

 **************************************************************************

 **************************************************************************

                    xk=(   0.00500,   0.00289,   0.00000  )

     point group C_2v (mm2) 
     there are  4 classes
     the character table:

       E     C2    s_v   s_v' 
A_1    1.00  1.00  1.00  1.00
A_2    1.00  1.00 -1.00 -1.00
B_1    1.00 -1.00  1.00 -1.00
B_2    1.00 -1.00 -1.00  1.00

     the symmetry operations in each class and the name of the first element:

     E        1
                                                                 
     C2       2
                                                                 
     s_v      3
                                                                 
     s_v'     4
                                                                 

     Band symmetry, C_2v (mm2)  point group:

     e(  1 -  1) =    -61.86219  eV     1   --> A_1  D_1  S_1  
     e(  2 -  3) =    -48.55761  eV     2   --> A_1  D_1  S_1  
     e(  2 -  3) =    -48.55761  eV     2   --> B_1  D_3  S_3  
     e(  4 -  5) =    -48.55723  eV     2   --> A_2  D_2  S_2  
     e(  4 -  5) =    -48.55723  eV     2   --> B_2  D_4  S_4  
     e(  6 -  7) =    -48.51575  eV     2   --> A_1  D_1  S_1  
     e(  6 -  7) =    -48.51575  eV     2   --> B_1  D_3  S_3  
     e(  8 -  9) =    -48.51476  eV     2   --> A_2  D_2  S_2  
     e(  8 -  9) =    -48.51476  eV     2   --> B_2  D_4  S_4  
     e( 10 - 10) =    -48.49931  eV     1   --> A_1  D_1  S_1  
     e( 11 - 11) =    -48.49714  eV     1   --> B_2  D_4  S_4  
     e( 12 - 12) =    -36.06891  eV     1   --> B_2  D_4  S_4  
     e( 13 - 14) =    -35.84898  eV     2   --> A_1  D_1  S_1  
     e( 13 - 14) =    -35.84898  eV     2   --> B_1  D_3  S_3  
     e( 15 - 15) =    -15.53197  eV     1   --> A_1  D_1  S_1  
     e( 16 - 16) =    -14.48875  eV     1   --> B_2  D_4  S_4  
     e( 17 - 17) =     -6.72074  eV     1   --> A_1  D_1  S_1  
     e( 18 - 18) =     -3.29521  eV     1   --> A_1  D_1  S_1  
     e( 19 - 19) =     -3.29386  eV     1   --> B_1  D_3  S_3  
     e( 20 - 20) =     -3.10269  eV     1   --> B_2  D_4  S_4  
     e( 21 - 21) =     -2.26573  eV     1   --> A_2  D_2  S_2  
     e( 22 - 22) =     -2.26431  eV     1   --> B_2  D_4  S_4  
     e( 23 - 23) =     -1.50974  eV     1   --> A_1  D_1  S_1  
     e( 24 - 24) =      1.84093  eV     1   --> B_2  D_4  S_4  
     e( 25 - 25) =      1.84287  eV     1   --> A_2  D_2  S_2  
     e( 26 - 26) =      2.09232  eV     1   --> A_1  D_1  S_1  
     e( 27 - 27) =      2.09388  eV     1   --> B_1  D_3  S_3  
     e( 28 - 28) =      3.60516  eV     1   --> A_1  D_1  S_1  
     e( 29 - 29) =      3.84871  eV     1   --> B_2  D_4  S_4  
     e( 30 - 30) =      4.11026  eV     1   --> A_1  D_1  S_1  
     e( 31 - 31) =      4.72401  eV     1   --> B_2  D_4  S_4  
     e( 32 - 32) =      4.86316  eV     1   --> A_1  D_1  S_1  

 **************************************************************************

 **************************************************************************

                    xk=(   0.01000,   0.00577,   0.00000  )

     Band symmetry, C_2v (mm2)  point group:

     e(  1 -  1) =    -61.86217  eV     1   --> A_1  D_1  S_1  
     e(  2 -  3) =    -48.55761  eV     2   --> A_1  D_1  S_1  
     e(  2 -  3) =    -48.55761  eV     2   --> B_1  D_3  S_3  
     e(  4 -  5) =    -48.55723  eV     2   --> A_2  D_2  S_2  
     e(  4 -  5) =    -48.55723  eV     2   --> B_2  D_4  S_4  
     e(  6 -  7) =    -48.51575  eV     2   --> A_1  D_1  S_1  
     e(  6 -  7) =    -48.51575  eV     2   --> B_1  D_3  S_3  
     e(  8 -  9) =    -48.51476  eV     2   --> A_2  D_2  S_2  
     e(  8 -  9) =    -48.51476  eV     2   --> B_2  D_4  S_4  
     e( 10 - 10) =    -48.49931  eV     1   --> A_1  D_1  S_1  
     e( 11 - 11) =    -48.49714  eV     1   --> B_2  D_4  S_4  
     e( 12 - 12) =    -36.06886  eV     1   --> B_2  D_4  S_4  
     e( 13 - 13) =    -35.84920  eV     1   --> A_1  D_1  S_1  
     e( 14 - 14) =    -35.84897  eV     1   --> B_1  D_3  S_3  
     e( 15 - 15) =    -15.53088  eV     1   --> A_1  D_1  S_1  
     e( 16 - 16) =    -14.48816  eV     1   --> B_2  D_4  S_4  
     e( 17 - 17) =     -6.71940  eV     1   --> A_1  D_1  S_1  
     e( 18 - 18) =     -3.29812  eV     1   --> A_1  D_1  S_1  
     e( 19 - 19) =     -3.29276  eV     1   --> B_1  D_3  S_3  
     e( 20 - 20) =     -3.10656  eV     1   --> B_2  D_4  S_4  
     e( 21 - 21) =     -2.26762  eV     1   --> A_2  D_2  S_2  
     e( 22 - 22) =     -2.26195  eV     1   --> B_2  D_4  S_4  
     e( 23 - 23) =     -1.50990  eV     1   --> A_1  D_1  S_1  
     e( 24 - 24) =      1.83689  eV     1   --> B_2  D_4  S_4  
     e( 25 - 25) =      1.84463  eV     1   --> A_2  D_2  S_2  
     e( 26 - 26) =      2.08589  eV     1   --> A_1  D_1  S_1  
     e( 27 - 27) =      2.09210  eV     1   --> B_1  D_3  S_3  
     e( 28 - 28) =      3.60827  eV     1   --> A_1  D_1  S_1  
     e( 29 - 29) =      3.85021  eV     1   --> B_2  D_4  S_4  
     e( 30 - 30) =      4.11218  eV     1   --> A_1  D_1  S_1  
     e( 31 - 31) =      4.72545  eV     1   --> B_2  D_4  S_4  
     e( 32 - 32) =      4.86761  eV     1   --> A_1  D_1  S_1  

 **************************************************************************

 **************************************************************************

                    xk=(   0.01500,   0.00866,   0.00000  )

     Band symmetry, C_2v (mm2)  point group:

     e(  1 -  1) =    -61.86214  eV     1   --> A_1  D_1  S_1  
     e(  2 -  3) =    -48.55761  eV     2   --> A_1  D_1  S_1  
     e(  2 -  3) =    -48.55761  eV     2   --> B_1  D_3  S_3  
     e(  4 -  5) =    -48.55723  eV     2   --> A_2  D_2  S_2  
     e(  4 -  5) =    -48.55723  eV     2   --> B_2  D_4  S_4  
     e(  6 -  7) =    -48.51575  eV     2   --> A_1  D_1  S_1  
     e(  6 -  7) =    -48.51575  eV     2   --> B_1  D_3  S_3  
     e(  8 -  9) =    -48.51476  eV     2   --> A_2  D_2  S_2  
     e(  8 -  9) =    -48.51476  eV     2   --> B_2  D_4  S_4  
     e( 10 - 10) =    -48.49931  eV     1   --> A_1  D_1  S_1  
     e( 11 - 11) =    -48.49714  eV     1   --> B_2  D_4  S_4  
     e( 12 - 12) =    -36.06878  eV     1   --> B_2  D_4  S_4  
     e( 13 - 13) =    -35.84956  eV     1   --> A_1  D_1  S_1  
     e( 14 - 14) =    -35.84905  eV     1   --> B_1  D_3  S_3  
     e( 15 - 15) =    -15.52907  eV     1   --> A_1  D_1  S_1  
     e( 16 - 16) =    -14.48716  eV     1   --> B_2  D_4  S_4  
     e( 17 - 17) =     -6.71716  eV     1   --> A_1  D_1  S_1  
     e( 18 - 18) =     -3.30298  eV     1   --> A_1  D_1  S_1  
     e( 19 - 19) =     -3.29091  eV     1   --> B_1  D_3  S_3  
     e( 20 - 20) =     -3.11296  eV     1   --> B_2  D_4  S_4  
     e( 21 - 21) =     -2.27076  eV     1   --> A_2  D_2  S_2  
     e( 22 - 22) =     -2.25809  eV     1   --> B_2  D_4  S_4  
     e( 23 - 23) =     -1.51017  eV     1   --> A_1  D_1  S_1  
     e( 24 - 24) =      1.83021  eV     1   --> B_2  D_4  S_4  
     e( 25 - 25) =      1.84754  eV     1   --> A_2  D_2  S_2  
     e( 26 - 26) =      2.07529  eV     1   --> A_1  D_1  S_1  
     e( 27 - 27) =      2.08915  eV     1   --> B_1  D_3  S_3  
     e( 28 - 28) =      3.61340  eV     1   --> A_1  D_1  S_1  
     e( 29 - 29) =      3.85271  eV     1   --> B_2  D_4  S_4  
     e( 30 - 30) =      4.11536  eV     1   --> A_1  D_1  S_1  
     e( 31 - 31) =      4.72786  eV     1   --> B_2  D_4  S_4  
     e( 32 - 32) =      4.87499  eV     1   --> A_1  D_1  S_1  

 **************************************************************************

 **************************************************************************

                    xk=(   0.02000,   0.01155,   0.00000  )

     Band symmetry, C_2v (mm2)  point group:

     e(  1 -  1) =    -61.86210  eV     1   --> A_1  D_1  S_1  
     e(  2 -  3) =    -48.55761  eV     2   --> A_1  D_1  S_1  
     e(  2 -  3) =    -48.55761  eV     2   --> B_1  D_3  S_3  
     e(  4 -  5) =    -48.55724  eV     2   --> A_2  D_2  S_2  
     e(  4 -  5) =    -48.55724  eV     2   --> B_2  D_4  S_4  
     e(  6 -  7) =    -48.51575  eV     2   --> A_1  D_1  S_1  
     e(  6 -  7) =    -48.51575  eV     2   --> B_1  D_3  S_3  
     e(  8 -  9) =    -48.51476  eV     2   --> A_2  D_2  S_2  
     e(  8 -  9) =    -48.51476  eV     2   --> B_2  D_4  S_4  
     e( 10 - 10) =    -48.49930  eV     1   --> A_1  D_1  S_1  
     e( 11 - 11) =    -48.49713  eV     1   --> B_2  D_4  S_4  
     e( 12 - 12) =    -36.06867  eV     1   --> B_2  D_4  S_4  
     e( 13 - 13) =    -35.85007  eV     1   --> A_1  D_1  S_1  
     e( 14 - 14) =    -35.84917  eV     1   --> B_1  D_3  S_3  
     e( 15 - 15) =    -15.52653  eV     1   --> A_1  D_1  S_1  
     e( 16 - 16) =    -14.48578  eV     1   --> B_2  D_4  S_4  
     e( 17 - 17) =     -6.71402  eV     1   --> A_1  D_1  S_1  
     e( 18 - 18) =     -3.30975  eV     1   --> A_1  D_1  S_1  
     e( 19 - 19) =     -3.28833  eV     1   --> B_1  D_3  S_3  
     e( 20 - 20) =     -3.12179  eV     1   --> B_2  D_4  S_4  
     e( 21 - 21) =     -2.27514  eV     1   --> A_2  D_2  S_2  
     e( 22 - 22) =     -2.25283  eV     1   --> B_2  D_4  S_4  
     e( 23 - 23) =     -1.51056  eV     1   --> A_1  D_1  S_1  
     e( 24 - 24) =      1.82095  eV     1   --> B_2  D_4  S_4  
     e( 25 - 25) =      1.85161  eV     1   --> A_2  D_2  S_2  
     e( 26 - 26) =      2.06067  eV     1   --> A_1  D_1  S_1  
     e( 27 - 27) =      2.08503  eV     1   --> B_1  D_3  S_3  
     e( 28 - 28) =      3.62042  eV     1   --> A_1  D_1  S_1  
     e( 29 - 29) =      3.85620  eV     1   --> B_2  D_4  S_4  
     e( 30 - 30) =      4.11978  eV     1   --> A_1  D_1  S_1  
     e( 31 - 31) =      4.73123  eV     1   --> B_2  D_4  S_4  
     e( 32 - 32) =      4.88525  eV     1   --> A_1  D_1  S_1  

 **************************************************************************

 **************************************************************************

                    xk=(   0.02500,   0.01443,   0.00000  )

     Band symmetry, C_2v (mm2)  point group:

     e(  1 -  1) =    -61.86203  eV     1   --> A_1  D_1  S_1  
     e(  2 -  3) =    -48.55760  eV     2   --> A_1  D_1  S_1  
     e(  2 -  3) =    -48.55760  eV     2   --> B_1  D_3  S_3  
     e(  4 -  5) =    -48.55724  eV     2   --> A_2  D_2  S_2  
     e(  4 -  5) =    -48.55724  eV     2   --> B_2  D_4  S_4  
     e(  6 -  7) =    -48.51575  eV     2   --> A_1  D_1  S_1  
     e(  6 -  7) =    -48.51575  eV     2   --> B_1  D_3  S_3  
     e(  8 -  9) =    -48.51477  eV     2   --> A_2  D_2  S_2  
     e(  8 -  9) =    -48.51477  eV     2   --> B_2  D_4  S_4  
     e( 10 - 10) =    -48.49930  eV     1   --> A_1  D_1  S_1  
     e( 11 - 11) =    -48.49712  eV     1   --> B_2  D_4  S_4  
     e( 12 - 12) =    -36.06853  eV     1   --> B_2  D_4  S_4  
     e( 13 - 13) =    -35.85073  eV     1   --> A_1  D_1  S_1  
     e( 14 - 14) =    -35.84932  eV     1   --> B_1  D_3  S_3  
     e( 15 - 15) =    -15.52327  eV     1   --> A_1  D_1  S_1  
     e( 16 - 16) =    -14.48399  eV     1   --> B_2  D_4  S_4  
     e( 17 - 17) =     -6.71000  eV     1   --> A_1  D_1  S_1  
     e( 18 - 18) =     -3.31843  eV     1   --> A_1  D_1  S_1  
     e( 19 - 19) =     -3.28501  eV     1   --> B_1  D_3  S_3  
     e( 20 - 20) =     -3.13293  eV     1   --> B_2  D_4  S_4  
     e( 21 - 21) =     -2.28075  eV     1   --> A_2  D_2  S_2  
     e( 22 - 22) =     -2.24631  eV     1   --> B_2  D_4  S_4  
     e( 23 - 23) =     -1.51107  eV     1   --> A_1  D_1  S_1  
     e( 24 - 24) =      1.80923  eV     1   --> B_2  D_4  S_4  
     e( 25 - 25) =      1.85682  eV     1   --> A_2  D_2  S_2  
     e( 26 - 26) =      2.04222  eV     1   --> A_1  D_1  S_1  
     e( 27 - 27) =      2.07975  eV     1   --> B_1  D_3  S_3  
     e( 28 - 28) =      3.62920  eV     1   --> A_1  D_1  S_1  
     e( 29 - 29) =      3.86069  eV     1   --> B_2  D_4  S_4  
     e( 30 - 30) =      4.12542  eV     1   --> A_1  D_1  S_1  
     e( 31 - 31) =      4.73556  eV     1   --> B_2  D_4  S_4  
     e( 32 - 32) =      4.89830  eV     1   --> A_1  D_1  S_1  

 **************************************************************************

 **************************************************************************

                    xk=(   0.03000,   0.01732,   0.00000  )

     Band symmetry, C_2v (mm2)  point group:

     e(  1 -  1) =    -61.86196  eV     1   --> A_1  D_1  S_1  
     e(  2 -  3) =    -48.55760  eV     2   --> A_1  D_1  S_1  
     e(  2 -  3) =    -48.55760  eV     2   --> B_1  D_3  S_3  
     e(  4 -  5) =    -48.55724  eV     2   --> A_2  D_2  S_2  
     e(  4 -  5) =    -48.55724  eV     2   --> B_2  D_4  S_4  
     e(  6 -  7) =    -48.51576  eV     2   --> A_1  D_1  S_1  
     e(  6 -  7) =    -48.51576  eV     2   --> B_1  D_3  S_3  
     e(  8 -  9) =    -48.51477  eV     2   --> A_2  D_2  S_2  
     e(  8 -  9) =    -48.51477  eV     2   --> B_2  D_4  S_4  
     e( 10 - 10) =    -48.49929  eV     1   --> A_1  D_1  S_1  
     e( 11 - 11) =    -48.49712  eV     1   --> B_2  D_4  S_4  
     e( 12 - 12) =    -36.06836  eV     1   --> B_2  D_4  S_4  
     e( 13 - 13) =    -35.85153  eV     1   --> A_1  D_1  S_1  
     e( 14 - 14) =    -35.84950  eV     1   --> B_1  D_3  S_3  
     e( 15 - 15) =    -15.51929  eV     1   --> A_1  D_1  S_1  
     e( 16 - 16) =    -14.48182  eV     1   --> B_2  D_4  S_4  
     e( 17 - 17) =     -6.70509  eV     1   --> A_1  D_1  S_1  
     e( 18 - 18) =     -3.32900  eV     1   --> A_1  D_1  S_1  
     e( 19 - 19) =     -3.28096  eV     1   --> B_1  D_3  S_3  
     e( 20 - 20) =     -3.14625  eV     1   --> B_2  D_4  S_4  
     e( 21 - 21) =     -2.28758  eV     1   --> A_2  D_2  S_2  
     e( 22 - 22) =     -2.23869  eV     1   --> B_2  D_4  S_4  
     e( 23 - 23) =     -1.51171  eV     1   --> A_1  D_1  S_1  
     e( 24 - 24) =      1.79517  eV     1   --> B_2  D_4  S_4  
     e( 25 - 25) =      1.86314  eV     1   --> A_2  D_2  S_2  
     e( 26 - 26) =      2.02019  eV     1   --> A_1  D_1  S_1  
     e( 27 - 27) =      2.07333  eV     1   --> B_1  D_3  S_3  
     e( 28 - 28) =      3.63960  eV     1   --> A_1  D_1  S_1  
     e( 29 - 29) =      3.86616  eV     1   --> B_2  D_4  S_4  
     e( 30 - 30) =      4.13224  eV     1   --> A_1  D_1  S_1  
     e( 31 - 31) =      4.74084  eV     1   --> B_2  D_4  S_4  
     e( 32 - 32) =      4.91403  eV     1   --> A_1  D_1  S_1  

 **************************************************************************

 **************************************************************************

                    xk=(   0.03500,   0.02021,   0.00000  )

     Band symmetry, C_2v (mm2)  point group:

     e(  1 -  1) =    -61.86188  eV     1   --> A_1  D_1  S_1  
     e(  2 -  3) =    -48.55760  eV     2   --> A_1  D_1  S_1  
     e(  2 -  3) =    -48.55760  eV     2   --> B_1  D_3  S_3  
     e(  4 -  5) =    -48.55724  eV     2   --> A_2  D_2  S_2  
     e(  4 -  5) =    -48.55724  eV     2   --> B_2  D_4  S_4  
     e(  6 -  7) =    -48.51576  eV     2   --> A_1  D_1  S_1  
     e(  6 -  7) =    -48.51576  eV     2   --> B_1  D_3  S_3  
     e(  8 -  9) =    -48.51478  eV     2   --> A_2  D_2  S_2  
     e(  8 -  9) =    -48.51478  eV     2   --> B_2  D_4  S_4  
     e( 10 - 10) =    -48.49928  eV     1   --> A_1  D_1  S_1  
     e( 11 - 11) =    -48.49711  eV     1   --> B_2  D_4  S_4  
     e( 12 - 12) =    -36.06815  eV     1   --> B_2  D_4  S_4  
     e( 13 - 13) =    -35.85247  eV     1   --> A_1  D_1  S_1  
     e( 14 - 14) =    -35.84971  eV     1   --> B_1  D_3  S_3  
     e( 15 - 15) =    -15.51459  eV     1   --> A_1  D_1  S_1  
     e( 16 - 16) =    -14.47924  eV     1   --> B_2  D_4  S_4  
     e( 17 - 17) =     -6.69930  eV     1   --> A_1  D_1  S_1  
     e( 18 - 18) =     -3.34143  eV     1   --> A_1  D_1  S_1  
     e( 19 - 19) =     -3.27617  eV     1   --> B_1  D_3  S_3  
     e( 20 - 20) =     -3.16160  eV     1   --> B_2  D_4  S_4  
     e( 21 - 21) =     -2.29559  eV     1   --> A_2  D_2  S_2  
     e( 22 - 22) =     -2.23013  eV     1   --> B_2  D_4  S_4  
     e( 23 - 23) =     -1.51251  eV     1   --> A_1  D_1  S_1  
     e( 24 - 24) =      1.77892  eV     1   --> B_2  D_4  S_4  
     e( 25 - 25) =      1.87056  eV     1   --> A_2  D_2  S_2  
     e( 26 - 26) =      1.99484  eV     1   --> A_1  D_1  S_1  
     e( 27 - 27) =      2.06579  eV     1   --> B_1  D_3  S_3  
     e( 28 - 28) =      3.65144  eV     1   --> A_1  D_1  S_1  
     e( 29 - 29) =      3.87260  eV     1   --> B_2  D_4  S_4  
     e( 30 - 30) =      4.14022  eV     1   --> A_1  D_1  S_1  
     e( 31 - 31) =      4.74708  eV     1   --> B_2  D_4  S_4  
     e( 32 - 32) =      4.93232  eV     1   --> A_1  D_1  S_1  

 **************************************************************************

 **************************************************************************

                    xk=(   0.04000,   0.02309,   0.00000  )

     Band symmetry, C_2v (mm2)  point group:

     e(  1 -  1) =    -61.86178  eV     1   --> A_1  D_1  S_1  
     e(  2 -  3) =    -48.55759  eV     2   --> A_1  D_1  S_1  
     e(  2 -  3) =    -48.55759  eV     2   --> B_1  D_3  S_3  
     e(  4 -  5) =    -48.55724  eV     2   --> A_2  D_2  S_2  
     e(  4 -  5) =    -48.55724  eV     2   --> B_2  D_4  S_4  
     e(  6 -  7) =    -48.51576  eV     2   --> A_1  D_1  S_1  
     e(  6 -  7) =    -48.51576  eV     2   --> B_1  D_3  S_3  
     e(  8 -  9) =    -48.51479  eV     2   --> A_2  D_2  S_2  
     e(  8 -  9) =    -48.51479  eV     2   --> B_2  D_4  S_4  
     e( 10 - 10) =    -48.49927  eV     1   --> A_1  D_1  S_1  
     e( 11 - 11) =    -48.49710  eV     1   --> B_2  D_4  S_4  
     e( 12 - 12) =    -36.06791  eV     1   --> B_2  D_4  S_4  
     e( 13 - 13) =    -35.85356  eV     1   --> A_1  D_1  S_1  
     e( 14 - 14) =    -35.84996  eV     1   --> B_1  D_3  S_3  
     e( 15 - 15) =    -15.50917  eV     1   --> A_1  D_1  S_1  
     e( 16 - 16) =    -14.47628  eV     1   --> B_2  D_4  S_4  
     e( 17 - 17) =     -6.69263  eV     1   --> A_1  D_1  S_1  
     e( 18 - 18) =     -3.35569  eV     1   --> A_1  D_1  S_1  
     e( 19 - 19) =     -3.27067  eV     1   --> B_1  D_3  S_3  
     e( 20 - 20) =     -3.17883  eV     1   --> B_2  D_4  S_4  
     e( 21 - 21) =     -2.30478  eV     1   --> A_2  D_2  S_2  
     e( 22 - 22) =     -2.22084  eV     1   --> B_2  D_4  S_4  
     e( 23 - 23) =     -1.51346  eV     1   --> A_1  D_1  S_1  
     e( 24 - 24) =      1.76065  eV     1   --> B_2  D_4  S_4  
     e( 25 - 25) =      1.87905  eV     1   --> A_2  D_2  S_2  
     e( 26 - 26) =      1.96646  eV     1   --> A_1  D_1  S_1  
     e( 27 - 27) =      2.05714  eV     1   --> B_1  D_3  S_3  
     e( 28 - 28) =      3.66458  eV     1   --> A_1  D_1  S_1  
     e( 29 - 29) =      3.88003  eV     1   --> B_2  D_4  S_4  
     e( 30 - 30) =      4.14931  eV     1   --> A_1  D_1  S_1  
     e( 31 - 31) =      4.75427  eV     1   --> B_2  D_4  S_4  
     e( 32 - 32) =      4.95301  eV     1   --> A_1  D_1  S_1  

 **************************************************************************

 **************************************************************************

                    xk=(   0.04500,   0.02598,   0.00000  )

     Band symmetry, C_2v (mm2)  point group:

     e(  1 -  1) =    -61.86167  eV     1   --> A_1  D_1  S_1  
     e(  2 -  3) =    -48.55759  eV     2   --> A_1  D_1  S_1  
     e(  2 -  3) =    -48.55759  eV     2   --> B_1  D_3  S_3  
     e(  4 -  5) =    -48.55724  eV     2   --> A_2  D_2  S_2  
     e(  4 -  5) =    -48.55724  eV     2   --> B_2  D_4  S_4  
     e(  6 -  7) =    -48.51577  eV     2   --> A_1  D_1  S_1  
     e(  6 -  7) =    -48.51577  eV     2   --> B_1  D_3  S_3  
     e(  8 -  9) =    -48.51480  eV     2   --> A_2  D_2  S_2  
     e(  8 -  9) =    -48.51480  eV     2   --> B_2  D_4  S_4  
     e( 10 - 10) =    -48.49926  eV     1   --> A_1  D_1  S_1  
     e( 11 - 11) =    -48.49709  eV     1   --> B_2  D_4  S_4  
     e( 12 - 12) =    -36.06764  eV     1   --> B_2  D_4  S_4  
     e( 13 - 13) =    -35.85479  eV     1   --> A_1  D_1  S_1  
     e( 14 - 14) =    -35.85023  eV     1   --> B_1  D_3  S_3  
     e( 15 - 15) =    -15.50304  eV     1   --> A_1  D_1  S_1  
     e( 16 - 16) =    -14.47293  eV     1   --> B_2  D_4  S_4  
     e( 17 - 17) =     -6.68510  eV     1   --> A_1  D_1  S_1  
     e( 18 - 18) =     -3.37174  eV     1   --> A_1  D_1  S_1  
     e( 19 - 19) =     -3.26444  eV     1   --> B_1  D_3  S_3  
     e( 20 - 20) =     -3.19779  eV     1   --> B_2  D_4  S_4  
     e( 21 - 21) =     -2.31511  eV     1   --> A_2  D_2  S_2  
     e( 22 - 22) =     -2.21099  eV     1   --> B_2  D_4  S_4  
     e( 23 - 23) =     -1.51459  eV     1   --> A_1  D_1  S_1  
     e( 24 - 24) =      1.74055  eV     1   --> B_2  D_4  S_4  
     e( 25 - 25) =      1.88857  eV     1   --> A_2  D_2  S_2  
     e( 26 - 26) =      1.93534  eV     1   --> A_1  D_1  S_1  
     e( 27 - 27) =      2.04742  eV     1   --> B_1  D_3  S_3  
     e( 28 - 28) =      3.67884  eV     1   --> A_1  D_1  S_1  
     e( 29 - 29) =      3.88842  eV     1   --> B_2  D_4  S_4  
     e( 30 - 30) =      4.15946  eV     1   --> A_1  D_1  S_1  
     e( 31 - 31) =      4.76240  eV     1   --> B_2  D_4  S_4  
     e( 32 - 32) =      4.97590  eV     1   --> A_1  D_1  S_1  

 **************************************************************************

 **************************************************************************

                    xk=(   0.05000,   0.02887,   0.00000  )

     Band symmetry, C_2v (mm2)  point group:

     e(  1 -  1) =    -61.86155  eV     1   --> A_1  D_1  S_1  
     e(  2 -  3) =    -48.55758  eV     2   --> A_1  D_1  S_1  
     e(  2 -  3) =    -48.55758  eV     2   --> B_1  D_3  S_3  
     e(  4 -  4) =    -48.55724  eV     1   --> B_2  D_4  S_4  
     e(  5 -  5) =    -48.55712  eV     1   --> A_2  D_2  S_2  
     e(  6 -  7) =    -48.51577  eV     2   --> A_1  D_1  S_1  
     e(  6 -  7) =    -48.51577  eV     2   --> B_1  D_3  S_3  
     e(  8 -  9) =    -48.51481  eV     2   --> A_2  D_2  S_2  
     e(  8 -  9) =    -48.51481  eV     2   --> B_2  D_4  S_4  
     e( 10 - 10) =    -48.49925  eV     1   --> A_1  D_1  S_1  
     e( 11 - 11) =    -48.49708  eV     1   --> B_2  D_4  S_4  
     e( 12 - 12) =    -36.06735  eV     1   --> B_2  D_4  S_4  
     e( 13 - 13) =    -35.85616  eV     1   --> A_1  D_1  S_1  
     e( 14 - 14) =    -35.85054  eV     1   --> B_1  D_3  S_3  
     e( 15 - 15) =    -15.49619  eV     1   --> A_1  D_1  S_1  
     e( 16 - 16) =    -14.46918  eV     1   --> B_2  D_4  S_4  
     e( 17 - 17) =     -6.67670  eV     1   --> A_1  D_1  S_1  
     e( 18 - 18) =     -3.38955  eV     1   --> A_1  D_1  S_1  
     e( 19 - 19) =     -3.25749  eV     1   --> B_1  D_3  S_3  
     e( 20 - 20) =     -3.21832  eV     1   --> B_2  D_4  S_4  
     e( 21 - 21) =     -2.32655  eV     1   --> A_2  D_2  S_2  
     e( 22 - 22) =     -2.20077  eV     1   --> B_2  D_4  S_4  
     e( 23 - 23) =     -1.51592  eV     1   --> A_1  D_1  S_1  
     e( 24 - 24) =      1.71882  eV     1   --> B_2  D_4  S_4  
     e( 25 - 25) =      1.89911  eV     1   --> A_2  D_2  S_2  
     e( 26 - 26) =      1.90176  eV     1   --> A_1  D_1  S_1  
     e( 27 - 27) =      2.03666  eV     1   --> B_1  D_3  S_3  
     e( 28 - 28) =      3.69410  eV     1   --> A_1  D_1  S_1  
     e( 29 - 29) =      3.89777  eV     1   --> B_2  D_4  S_4  
     e( 30 - 30) =      4.17065  eV     1   --> A_1  D_1  S_1  
     e( 31 - 31) =      4.77148  eV     1   --> B_2  D_4  S_4  
     e( 32 - 32) =      5.00079  eV     1   --> A_1  D_1  S_1  

 **************************************************************************

 **************************************************************************

                    xk=(   0.05500,   0.03175,   0.00000  )

     Band symmetry, C_2v (mm2)  point group:

     e(  1 -  1) =    -61.86141  eV     1   --> A_1  D_1  S_1  
     e(  2 -  2) =    -48.55758  eV     1   --> A_1  D_1  S_1  
     e(  3 -  3) =    -48.55746  eV     1   --> B_1  D_3  S_3  
     e(  4 -  4) =    -48.55724  eV     1   --> B_2  D_4  S_4  
     e(  5 -  5) =    -48.55710  eV     1   --> A_2  D_2  S_2  
     e(  6 -  7) =    -48.51577  eV     2   --> A_1  D_1  S_1  
     e(  6 -  7) =    -48.51577  eV     2   --> B_1  D_3  S_3  
     e(  8 -  9) =    -48.51483  eV     2   --> A_2  D_2  S_2  
     e(  8 -  9) =    -48.51483  eV     2   --> B_2  D_4  S_4  
     e( 10 - 10) =    -48.49924  eV     1   --> A_1  D_1  S_1  
     e( 11 - 11) =    -48.49707  eV     1   --> B_2  D_4  S_4  
     e( 12 - 12) =    -36.06702  eV     1   --> B_2  D_4  S_4  
     e( 13 - 13) =    -35.85766  eV     1   --> A_1  D_1  S_1  
     e( 14 - 14) =    -35.85088  eV     1   --> B_1  D_3  S_3  
     e( 15 - 15) =    -15.48864  eV     1   --> A_1  D_1  S_1  
     e( 16 - 16) =    -14.46505  eV     1   --> B_2  D_4  S_4  
     e( 17 - 17) =     -6.66746  eV     1   --> A_1  D_1  S_1  
     e( 18 - 18) =     -3.40908  eV     1   --> A_1  D_1  S_1  
     e( 19 - 19) =     -3.24982  eV     1   --> B_1  D_3  S_3  
     e( 20 - 20) =     -3.24029  eV     1   --> B_2  D_4  S_4  
     e( 21 - 21) =     -2.33907  eV     1   --> A_2  D_2  S_2  
     e( 22 - 22) =     -2.19037  eV     1   --> B_2  D_4  S_4  
     e( 23 - 23) =     -1.51747  eV     1   --> A_1  D_1  S_1  
     e( 24 - 24) =      1.69568  eV     1   --> B_2  D_4  S_4  
     e( 25 - 25) =      1.86602  eV     1   --> A_1  D_1  S_1  
     e( 26 - 26) =      1.91060  eV     1   --> A_2  D_2  S_2  
     e( 27 - 27) =      2.02487  eV     1   --> B_1  D_3  S_3  
     e( 28 - 28) =      3.71023  eV     1   --> A_1  D_1  S_1  
     e( 29 - 29) =      3.90807  eV     1   --> B_2  D_4  S_4  
     e( 30 - 30) =      4.18282  eV     1   --> A_1  D_1  S_1  
     e( 31 - 31) =      4.78149  eV     1   --> B_2  D_4  S_4  
     e( 32 - 32) =      5.02744  eV     1   --> A_1  D_1  S_1  

 **************************************************************************

 **************************************************************************

                    xk=(   0.06000,   0.03464,   0.00000  )

     Band symmetry, C_2v (mm2)  point group:

     e(  1 -  1) =    -61.86127  eV     1   --> A_1  D_1  S_1  
     e(  2 -  2) =    -48.55757  eV     1   --> A_1  D_1  S_1  
     e(  3 -  3) =    -48.55743  eV     1   --> B_1  D_3  S_3  
     e(  4 -  4) =    -48.55725  eV     1   --> B_2  D_4  S_4  
     e(  5 -  5) =    -48.55707  eV     1   --> A_2  D_2  S_2  
     e(  6 -  7) =    -48.51578  eV     2   --> A_1  D_1  S_1  
     e(  6 -  7) =    -48.51578  eV     2   --> B_1  D_3  S_3  
     e(  8 -  9) =    -48.51484  eV     2   --> A_2  D_2  S_2  
     e(  8 -  9) =    -48.51484  eV     2   --> B_2  D_4  S_4  
     e( 10 - 10) =    -48.49923  eV     1   --> A_1  D_1  S_1  
     e( 11 - 11) =    -48.49705  eV     1   --> B_2  D_4  S_4  
     e( 12 - 12) =    -36.06666  eV     1   --> B_2  D_4  S_4  
     e( 13 - 13) =    -35.85931  eV     1   --> A_1  D_1  S_1  
     e( 14 - 14) =    -35.85125  eV     1   --> B_1  D_3  S_3  
     e( 15 - 15) =    -15.48038  eV     1   --> A_1  D_1  S_1  
     e( 16 - 16) =    -14.46054  eV     1   --> B_2  D_4  S_4  
     e( 17 - 17) =     -6.65737  eV     1   --> A_1  D_1  S_1  
     e( 18 - 18) =     -3.43028  eV     1   --> A_1  D_1  S_1  
     e( 19 - 19) =     -3.26357  eV     1   --> B_2  D_4  S_4  
     e( 20 - 20) =     -3.24145  eV     1   --> B_1  D_3  S_3  
     e( 21 - 21) =     -2.35263  eV     1   --> A_2  D_2  S_2  
     e( 22 - 22) =     -2.17996  eV     1   --> B_2  D_4  S_4  
     e( 23 - 23) =     -1.51926  eV     1   --> A_1  D_1  S_1  
     e( 24 - 24) =      1.67136  eV     1   --> B_2  D_4  S_4  
     e( 25 - 25) =      1.82838  eV     1   --> A_1  D_1  S_1  
     e( 26 - 26) =      1.92303  eV     1   --> A_2  D_2  S_2  
     e( 27 - 27) =      2.01210  eV     1   --> B_1  D_3  S_3  
     e( 28 - 28) =      3.72714  eV     1   --> A_1  D_1  S_1  
     e( 29 - 29) =      3.91932  eV     1   --> B_2  D_4  S_4  
     e( 30 - 30) =      4.19595  eV     1   --> A_1  D_1  S_1  
     e( 31 - 31) =      4.79244  eV     1   --> B_2  D_4  S_4  
     e( 32 - 32) =      5.05560  eV     1   --> A_1  D_1  S_1  

 **************************************************************************

 **************************************************************************

                    xk=(   0.06500,   0.03753,   0.00000  )

     Band symmetry, C_2v (mm2)  point group:

     e(  1 -  1) =    -61.86111  eV     1   --> A_1  D_1  S_1  
     e(  2 -  2) =    -48.55757  eV     1   --> A_1  D_1  S_1  
     e(  3 -  3) =    -48.55741  eV     1   --> B_1  D_3  S_3  
     e(  4 -  4) =    -48.55725  eV     1   --> B_2  D_4  S_4  
     e(  5 -  5) =    -48.55704  eV     1   --> A_2  D_2  S_2  
     e(  6 -  7) =    -48.51578  eV     2   --> A_1  D_1  S_1  
     e(  6 -  7) =    -48.51578  eV     2   --> B_1  D_3  S_3  
     e(  8 -  9) =    -48.51486  eV     2   --> A_2  D_2  S_2  
     e(  8 -  9) =    -48.51486  eV     2   --> B_2  D_4  S_4  
     e( 10 - 10) =    -48.49922  eV     1   --> A_1  D_1  S_1  
     e( 11 - 11) =    -48.49704  eV     1   --> B_2  D_4  S_4  
     e( 12 - 12) =    -36.06627  eV     1   --> B_2  D_4  S_4  
     e( 13 - 13) =    -35.86108  eV     1   --> A_1  D_1  S_1  
     e( 14 - 14) =    -35.85166  eV     1   --> B_1  D_3  S_3  
     e( 15 - 15) =    -15.47142  eV     1   --> A_1  D_1  S_1  
     e( 16 - 16) =    -14.45564  eV     1   --> B_2  D_4  S_4  
     e( 17 - 17) =     -6.64645  eV     1   --> A_1  D_1  S_1  
     e( 18 - 18) =     -3.45310  eV     1   --> A_1  D_1  S_1  
     e( 19 - 19) =     -3.28805  eV     1   --> B_2  D_4  S_4  
     e( 20 - 20) =     -3.23238  eV     1   --> B_1  D_3  S_3  
     e( 21 - 21) =     -2.36721  eV     1   --> A_2  D_2  S_2  
     e( 22 - 22) =     -2.16973  eV     1   --> B_2  D_4  S_4  
     e( 23 - 23) =     -1.52132  eV     1   --> A_1  D_1  S_1  
     e( 24 - 24) =      1.64607  eV     1   --> B_2  D_4  S_4  
     e( 25 - 25) =      1.78912  eV     1   --> A_1  D_1  S_1  
     e( 26 - 26) =      1.93635  eV     1   --> A_2  D_2  S_2  
     e( 27 - 27) =      1.99837  eV     1   --> B_1  D_3  S_3  
     e( 28 - 28) =      3.74474  eV     1   --> A_1  D_1  S_1  
     e( 29 - 29) =      3.93151  eV     1   --> B_2  D_4  S_4  
     e( 30 - 30) =      4.20999  eV     1   --> A_1  D_1  S_1  
     e( 31 - 31) =      4.80433  eV     1   --> B_2  D_4  S_4  
     e( 32 - 32) =      5.08501  eV     1   --> A_1  D_1  S_1  

 **************************************************************************

 **************************************************************************

                    xk=(   0.07000,   0.04041,   0.00000  )

     Band symmetry, C_2v (mm2)  point group:

     e(  1 -  1) =    -61.86094  eV     1   --> A_1  D_1  S_1  
     e(  2 -  2) =    -48.55756  eV     1   --> A_1  D_1  S_1  
     e(  3 -  3) =    -48.55738  eV     1   --> B_1  D_3  S_3  
     e(  4 -  4) =    -48.55725  eV     1   --> B_2  D_4  S_4  
     e(  5 -  5) =    -48.55701  eV     1   --> A_2  D_2  S_2  
     e(  6 -  7) =    -48.51579  eV     2   --> A_1  D_1  S_1  
     e(  6 -  7) =    -48.51579  eV     2   --> B_1  D_3  S_3  
     e(  8 -  9) =    -48.51487  eV     2   --> A_2  D_2  S_2  
     e(  8 -  9) =    -48.51487  eV     2   --> B_2  D_4  S_4  
     e( 10 - 10) =    -48.49920  eV     1   --> A_1  D_1  S_1  
     e( 11 - 11) =    -48.49702  eV     1   --> B_2  D_4  S_4  
     e( 12 - 12) =    -36.06585  eV     1   --> B_2  D_4  S_4  
     e( 13 - 13) =    -35.86300  eV     1   --> A_1  D_1  S_1  
     e( 14 - 14) =    -35.85209  eV     1   --> B_1  D_3  S_3  
     e( 15 - 15) =    -15.46176  eV     1   --> A_1  D_1  S_1  
     e( 16 - 16) =    -14.45036  eV     1   --> B_2  D_4  S_4  
     e( 17 - 17) =     -6.63472  eV     1   --> A_1  D_1  S_1  
     e( 18 - 18) =     -3.47750  eV     1   --> A_1  D_1  S_1  
     e( 19 - 19) =     -3.31361  eV     1   --> B_2  D_4  S_4  
     e( 20 - 20) =     -3.22261  eV     1   --> B_1  D_3  S_3  
     e( 21 - 21) =     -2.38276  eV     1   --> A_2  D_2  S_2  
     e( 22 - 22) =     -2.15981  eV     1   --> B_2  D_4  S_4  
     e( 23 - 23) =     -1.52367  eV     1   --> A_1  D_1  S_1  
     e( 24 - 24) =      1.62007  eV     1   --> B_2  D_4  S_4  
     e( 25 - 25) =      1.74849  eV     1   --> A_1  D_1  S_1  
     e( 26 - 26) =      1.95052  eV     1   --> A_2  D_2  S_2  
     e( 27 - 27) =      1.98374  eV     1   --> B_1  D_3  S_3  
     e( 28 - 28) =      3.76296  eV     1   --> A_1  D_1  S_1  
     e( 29 - 29) =      3.94464  eV     1   --> B_2  D_4  S_4  
     e( 30 - 30) =      4.22492  eV     1   --> A_1  D_1  S_1  
     e( 31 - 31) =      4.81714  eV     1   --> B_2  D_4  S_4  
     e( 32 - 32) =      5.11540  eV     1   --> A_1  D_1  S_1  

 **************************************************************************

 **************************************************************************

                    xk=(   0.07500,   0.04330,   0.00000  )

     Band symmetry, C_2v (mm2)  point group:

     e(  1 -  1) =    -61.86076  eV     1   --> A_1  D_1  S_1  
     e(  2 -  2) =    -48.55756  eV     1   --> A_1  D_1  S_1  
     e(  3 -  4) =    -48.55734  eV     2   --> B_1  D_3  S_3  
     e(  3 -  4) =    -48.55734  eV     2   --> B_2  D_4  S_4  
     e(  5 -  5) =    -48.55697  eV     1   --> A_2  D_2  S_2  
     e(  6 -  7) =    -48.51579  eV     2   --> A_1  D_1  S_1  
     e(  6 -  7) =    -48.51579  eV     2   --> B_1  D_3  S_3  
     e(  8 -  8) =    -48.51489  eV     1   --> B_2  D_4  S_4  
     e(  9 -  9) =    -48.51478  eV     1   --> A_2  D_2  S_2  
     e( 10 - 10) =    -48.49919  eV     1   --> A_1  D_1  S_1  
     e( 11 - 11) =    -48.49701  eV     1   --> B_2  D_4  S_4  
     e( 12 - 12) =    -36.06541  eV     1   --> B_2  D_4  S_4  
     e( 13 - 13) =    -35.86504  eV     1   --> A_1  D_1  S_1  
     e( 14 - 14) =    -35.85255  eV     1   --> B_1  D_3  S_3  
     e( 15 - 15) =    -15.45141  eV     1   --> A_1  D_1  S_1  
     e( 16 - 16) =    -14.44470  eV     1   --> B_2  D_4  S_4  
     e( 17 - 17) =     -6.62218  eV     1   --> A_1  D_1  S_1  
     e( 18 - 18) =     -3.50343  eV     1   --> A_1  D_1  S_1  
     e( 19 - 19) =     -3.34016  eV     1   --> B_2  D_4  S_4  
     e( 20 - 20) =     -3.21215  eV     1   --> B_1  D_3  S_3  
     e( 21 - 21) =     -2.39924  eV     1   --> A_2  D_2  S_2  
     e( 22 - 22) =     -2.15037  eV     1   --> B_2  D_4  S_4  
     e( 23 - 23) =     -1.52635  eV     1   --> A_1  D_1  S_1  
     e( 24 - 24) =      1.59357  eV     1   --> B_2  D_4  S_4  
     e( 25 - 25) =      1.70672  eV     1   --> A_1  D_1  S_1  
     e( 26 - 26) =      1.96549  eV     1   --> A_2  D_2  S_2  
     e( 27 - 27) =      1.96822  eV     1   --> B_1  D_3  S_3  
     e( 28 - 28) =      3.78176  eV     1   --> A_1  D_1  S_1  
     e( 29 - 29) =      3.95870  eV     1   --> B_2  D_4  S_4  
     e( 30 - 30) =      4.24071  eV     1   --> A_1  D_1  S_1  
     e( 31 - 31) =      4.83087  eV     1   --> B_2  D_4  S_4  
     e( 32 - 32) =      5.14651  eV     1   --> A_1  D_1  S_1  

 **************************************************************************

 **************************************************************************

                    xk=(   0.08000,   0.04619,   0.00000  )

     Band symmetry, C_2v (mm2)  point group:

     e(  1 -  1) =    -61.86056  eV     1   --> A_1  D_1  S_1  
     e(  2 -  2) =    -48.55755  eV     1   --> A_1  D_1  S_1  
     e(  3 -  4) =    -48.55731  eV     2   --> B_1  D_3  S_3  
     e(  3 -  4) =    -48.55731  eV     2   --> B_2  D_4  S_4  
     e(  5 -  5) =    -48.55694  eV     1   --> A_2  D_2  S_2  
     e(  6 -  7) =    -48.51580  eV     2   --> A_1  D_1  S_1  
     e(  6 -  7) =    -48.51580  eV     2   --> B_1  D_3  S_3  
     e(  8 -  8) =    -48.51491  eV     1   --> B_2  D_4  S_4  
     e(  9 -  9) =    -48.51478  eV     1   --> A_2  D_2  S_2  
     e( 10 - 10) =    -48.49917  eV     1   --> A_1  D_1  S_1  
     e( 11 - 11) =    -48.49699  eV     1   --> B_2  D_4  S_4  
     e( 12 - 12) =    -36.06493  eV     1   --> B_2  D_4  S_4  
     e( 13 - 13) =    -35.86721  eV     1   --> A_1  D_1  S_1  
     e( 14 - 14) =    -35.85304  eV     1   --> B_1  D_3  S_3  
     e( 15 - 15) =    -15.44038  eV     1   --> A_1  D_1  S_1  
     e( 16 - 16) =    -14.43866  eV     1   --> B_2  D_4  S_4  
     e( 17 - 17) =     -6.60885  eV     1   --> A_1  D_1  S_1  
     e( 18 - 18) =     -3.53082  eV     1   --> A_1  D_1  S_1  
     e( 19 - 19) =     -3.36762  eV     1   --> B_2  D_4  S_4  
     e( 20 - 20) =     -3.20101  eV     1   --> B_1  D_3  S_3  
     e( 21 - 21) =     -2.41661  eV     1   --> A_2  D_2  S_2  
     e( 22 - 22) =     -2.14156  eV     1   --> B_2  D_4  S_4  
     e( 23 - 23) =     -1.52939  eV     1   --> A_1  D_1  S_1  
     e( 24 - 24) =      1.56682  eV     1   --> B_2  D_4  S_4  
     e( 25 - 25) =      1.66405  eV     1   --> A_1  D_1  S_1  
     e( 26 - 26) =      1.95187  eV     1   --> B_1  D_3  S_3  
     e( 27 - 27) =      1.98121  eV     1   --> A_2  D_2  S_2  
     e( 28 - 28) =      3.80111  eV     1   --> A_1  D_1  S_1  
     e( 29 - 29) =      3.97369  eV     1   --> B_2  D_4  S_4  
     e( 30 - 30) =      4.25733  eV     1   --> A_1  D_1  S_1  
     e( 31 - 31) =      4.84553  eV     1   --> B_2  D_4  S_4  
     e( 32 - 32) =      5.17808  eV     1   --> A_1  D_1  S_1  

 **************************************************************************

 **************************************************************************

                    xk=(   0.08500,   0.04907,   0.00000  )

     Band symmetry, C_2v (mm2)  point group:

     e(  1 -  1) =    -61.86036  eV     1   --> A_1  D_1  S_1  
     e(  2 -  2) =    -48.55754  eV     1   --> A_1  D_1  S_1  
     e(  3 -  4) =    -48.55727  eV     2   --> B_1  D_3  S_3  
     e(  3 -  4) =    -48.55727  eV     2   --> B_2  D_4  S_4  
     e(  5 -  5) =    -48.55690  eV     1   --> A_2  D_2  S_2  
     e(  6 -  7) =    -48.51580  eV     2   --> A_1  D_1  S_1  
     e(  6 -  7) =    -48.51580  eV     2   --> B_1  D_3  S_3  
     e(  8 -  8) =    -48.51492  eV     1   --> B_2  D_4  S_4  
     e(  9 -  9) =    -48.51479  eV     1   --> A_2  D_2  S_2  
     e( 10 - 10) =    -48.49915  eV     1   --> A_1  D_1  S_1  
     e( 11 - 11) =    -48.49697  eV     1   --> B_2  D_4  S_4  
     e( 12 - 12) =    -36.06443  eV     1   --> B_2  D_4  S_4  
     e( 13 - 13) =    -35.86951  eV     1   --> A_1  D_1  S_1  
     e( 14 - 14) =    -35.85356  eV     1   --> B_1  D_3  S_3  
     e( 15 - 15) =    -15.42866  eV     1   --> A_1  D_1  S_1  
     e( 16 - 16) =    -14.43226  eV     1   --> B_2  D_4  S_4  
     e( 17 - 17) =     -6.59474  eV     1   --> A_1  D_1  S_1  
     e( 18 - 18) =     -3.55962  eV     1   --> A_1  D_1  S_1  
     e( 19 - 19) =     -3.39591  eV     1   --> B_2  D_4  S_4  
     e( 20 - 20) =     -3.18920  eV     1   --> B_1  D_3  S_3  
     e( 21 - 21) =     -2.43483  eV     1   --> A_2  D_2  S_2  
     e( 22 - 22) =     -2.13349  eV     1   --> B_2  D_4  S_4  
     e( 23 - 23) =     -1.53283  eV     1   --> A_1  D_1  S_1  
     e( 24 - 24) =      1.54005  eV     1   --> B_2  D_4  S_4  
     e( 25 - 25) =      1.62068  eV     1   --> A_1  D_1  S_1  
     e( 26 - 26) =      1.93472  eV     1   --> B_1  D_3  S_3  
     e( 27 - 27) =      1.99765  eV     1   --> A_2  D_2  S_2  
     e( 28 - 28) =      3.82099  eV     1   --> A_1  D_1  S_1  
     e( 29 - 29) =      3.98959  eV     1   --> B_2  D_4  S_4  
     e( 30 - 30) =      4.27477  eV     1   --> A_1  D_1  S_1  
     e( 31 - 31) =      4.86110  eV     1   --> B_2  D_4  S_4  
     e( 32 - 32) =      5.20991  eV     1   --> A_1  D_1  S_1  

 **************************************************************************

 **************************************************************************

                    xk=(   0.09000,   0.05196,   0.00000  )

     Band symmetry, C_2v (mm2)  point group:

     e(  1 -  1) =    -61.86014  eV     1   --> A_1  D_1  S_1  
     e(  2 -  2) =    -48.55754  eV     1   --> A_1  D_1  S_1  
     e(  3 -  4) =    -48.55727  eV     2   --> B_1  D_3  S_3  
     e(  3 -  4) =    -48.55727  eV     2   --> B_2  D_4  S_4  
     e(  5 -  5) =    -48.55687  eV     1   --> A_2  D_2  S_2  
     e(  6 -  7) =    -48.51581  eV     2   --> A_1  D_1  S_1  
     e(  6 -  7) =    -48.51581  eV     2   --> B_1  D_3  S_3  
     e(  8 -  8) =    -48.51494  eV     1   --> B_2  D_4  S_4  
     e(  9 -  9) =    -48.51479  eV     1   --> A_2  D_2  S_2  
     e( 10 - 10) =    -48.49913  eV     1   --> A_1  D_1  S_1  
     e( 11 - 11) =    -48.49695  eV     1   --> B_2  D_4  S_4  
     e( 12 - 12) =    -36.06390  eV     1   --> B_2  D_4  S_4  
     e( 13 - 13) =    -35.87194  eV     1   --> A_1  D_1  S_1  
     e( 14 - 14) =    -35.85411  eV     1   --> B_1  D_3  S_3  
     e( 15 - 15) =    -15.41626  eV     1   --> A_1  D_1  S_1  
     e( 16 - 16) =    -14.42548  eV     1   --> B_2  D_4  S_4  
     e( 17 - 17) =     -6.57988  eV     1   --> A_1  D_1  S_1  
     e( 18 - 18) =     -3.58978  eV     1   --> A_1  D_1  S_1  
     e( 19 - 19) =     -3.42496  eV     1   --> B_2  D_4  S_4  
     e( 20 - 20) =     -3.17673  eV     1   --> B_1  D_3  S_3  
     e( 21 - 21) =     -2.45387  eV     1   --> A_2  D_2  S_2  
     e( 22 - 22) =     -2.12630  eV     1   --> B_2  D_4  S_4  
     e( 23 - 23) =     -1.53669  eV     1   --> A_1  D_1  S_1  
     e( 24 - 24) =      1.51347  eV     1   --> B_2  D_4  S_4  
     e( 25 - 25) =      1.57683  eV     1   --> A_1  D_1  S_1  
     e( 26 - 26) =      1.91682  eV     1   --> B_1  D_3  S_3  
     e( 27 - 27) =      2.01474  eV     1   --> A_2  D_2  S_2  
     e( 28 - 28) =      3.84138  eV     1   --> A_1  D_1  S_1  
     e( 29 - 29) =      4.00641  eV     1   --> B_2  D_4  S_4  
     e( 30 - 30) =      4.29300  eV     1   --> A_1  D_1  S_1  
     e( 31 - 31) =      4.87759  eV     1   --> B_2  D_4  S_4  
     e( 32 - 32) =      5.24179  eV     1   --> A_1  D_1  S_1  

 **************************************************************************

 **************************************************************************

                    xk=(   0.09500,   0.05485,   0.00000  )

     Band symmetry, C_2v (mm2)  point group:

     e(  1 -  1) =    -61.85992  eV     1   --> A_1  D_1  S_1  
     e(  2 -  2) =    -48.55753  eV     1   --> A_1  D_1  S_1  
     e(  3 -  4) =    -48.55727  eV     2   --> B_1  D_3  S_3  
     e(  3 -  4) =    -48.55727  eV     2   --> B_2  D_4  S_4  
     e(  5 -  5) =    -48.55683  eV     1   --> A_2  D_2  S_2  
     e(  6 -  7) =    -48.51582  eV     2   --> A_1  D_1  S_1  
     e(  6 -  7) =    -48.51582  eV     2   --> B_1  D_3  S_3  
     e(  8 -  8) =    -48.51497  eV     1   --> B_2  D_4  S_4  
     e(  9 -  9) =    -48.51479  eV     1   --> A_2  D_2  S_2  
     e( 10 - 10) =    -48.49911  eV     1   --> A_1  D_1  S_1  
     e( 11 - 11) =    -48.49693  eV     1   --> B_2  D_4  S_4  
     e( 12 - 12) =    -36.06334  eV     1   --> B_2  D_4  S_4  
     e( 13 - 13) =    -35.87448  eV     1   --> A_1  D_1  S_1  
     e( 14 - 14) =    -35.85469  eV     1   --> B_1  D_3  S_3  
     e( 15 - 15) =    -15.40320  eV     1   --> A_1  D_1  S_1  
     e( 16 - 16) =    -14.41834  eV     1   --> B_2  D_4  S_4  
     e( 17 - 17) =     -6.56429  eV     1   --> A_1  D_1  S_1  
     e( 18 - 18) =     -3.62123  eV     1   --> A_1  D_1  S_1  
     e( 19 - 19) =     -3.45473  eV     1   --> B_2  D_4  S_4  
     e( 20 - 20) =     -3.16360  eV     1   --> B_1  D_3  S_3  
     e( 21 - 21) =     -2.47366  eV     1   --> A_2  D_2  S_2  
     e( 22 - 22) =     -2.12010  eV     1   --> B_2  D_4  S_4  
     e( 23 - 23) =     -1.54101  eV     1   --> A_1  D_1  S_1  
     e( 24 - 24) =      1.48731  eV     1   --> B_2  D_4  S_4  
     e( 25 - 25) =      1.53268  eV     1   --> A_1  D_1  S_1  
     e( 26 - 26) =      1.89821  eV     1   --> B_1  D_3  S_3  
     e( 27 - 27) =      2.03245  eV     1   --> A_2  D_2  S_2  
     e( 28 - 28) =      3.86228  eV     1   --> A_1  D_1  S_1  
     e( 29 - 29) =      4.02414  eV     1   --> B_2  D_4  S_4  
     e( 30 - 30) =      4.31203  eV     1   --> A_1  D_1  S_1  
     e( 31 - 31) =      4.89499  eV     1   --> B_2  D_4  S_4  
     e( 32 - 32) =      5.27358  eV     1   --> A_1  D_1  S_1  

 **************************************************************************

 **************************************************************************

                    xk=(   0.10000,   0.05774,   0.00000  )

     Band symmetry, C_2v (mm2)  point group:

     e(  1 -  1) =    -61.85968  eV     1   --> A_1  D_1  S_1  
     e(  2 -  2) =    -48.55752  eV     1   --> A_1  D_1  S_1  
     e(  3 -  3) =    -48.55728  eV     1   --> B_2  D_4  S_4  
     e(  4 -  4) =    -48.55714  eV     1   --> B_1  D_3  S_3  
     e(  5 -  5) =    -48.55679  eV     1   --> A_2  D_2  S_2  
     e(  6 -  7) =    -48.51583  eV     2   --> A_1  D_1  S_1  
     e(  6 -  7) =    -48.51583  eV     2   --> B_1  D_3  S_3  
     e(  8 -  8) =    -48.51499  eV     1   --> B_2  D_4  S_4  
     e(  9 -  9) =    -48.51480  eV     1   --> A_2  D_2  S_2  
     e( 10 - 10) =    -48.49909  eV     1   --> A_1  D_1  S_1  
     e( 11 - 11) =    -48.49691  eV     1   --> B_2  D_4  S_4  
     e( 12 - 12) =    -36.06276  eV     1   --> B_2  D_4  S_4  
     e( 13 - 13) =    -35.87715  eV     1   --> A_1  D_1  S_1  
     e( 14 - 14) =    -35.85529  eV     1   --> B_1  D_3  S_3  
     e( 15 - 15) =    -15.38947  eV     1   --> A_1  D_1  S_1  
     e( 16 - 16) =    -14.41083  eV     1   --> B_2  D_4  S_4  
     e( 17 - 17) =     -6.54798  eV     1   --> A_1  D_1  S_1  
     e( 18 - 18) =     -3.65391  eV     1   --> A_1  D_1  S_1  
     e( 19 - 19) =     -3.48516  eV     1   --> B_2  D_4  S_4  
     e( 20 - 20) =     -3.14982  eV     1   --> B_1  D_3  S_3  
     e( 21 - 21) =     -2.49418  eV     1   --> A_2  D_2  S_2  
     e( 22 - 22) =     -2.11499  eV     1   --> B_2  D_4  S_4  
     e( 23 - 23) =     -1.54583  eV     1   --> A_1  D_1  S_1  
     e( 24 - 24) =      1.46178  eV     1   --> B_2  D_4  S_4  
     e( 25 - 25) =      1.48841  eV     1   --> A_1  D_1  S_1  
     e( 26 - 26) =      1.87893  eV     1   --> B_1  D_3  S_3  
     e( 27 - 27) =      2.05072  eV     1   --> A_2  D_2  S_2  
     e( 28 - 28) =      3.88370  eV     1   --> A_1  D_1  S_1  
     e( 29 - 29) =      4.04277  eV     1   --> B_2  D_4  S_4  
     e( 30 - 30) =      4.33184  eV     1   --> A_1  D_1  S_1  
     e( 31 - 31) =      4.91330  eV     1   --> B_2  D_4  S_4  
     e( 32 - 32) =      5.30517  eV     1   --> A_1  D_1  S_1  

 **************************************************************************

 **************************************************************************

                    xk=(   0.10500,   0.06062,   0.00000  )

     Band symmetry, C_2v (mm2)  point group:

     e(  1 -  1) =    -61.85944  eV     1   --> A_1  D_1  S_1  
     e(  2 -  2) =    -48.55752  eV     1   --> A_1  D_1  S_1  
     e(  3 -  3) =    -48.55728  eV     1   --> B_2  D_4  S_4  
     e(  4 -  4) =    -48.55709  eV     1   --> B_1  D_3  S_3  
     e(  5 -  5) =    -48.55674  eV     1   --> A_2  D_2  S_2  
     e(  6 -  7) =    -48.51583  eV     2   --> A_1  D_1  S_1  
     e(  6 -  7) =    -48.51583  eV     2   --> B_1  D_3  S_3  
     e(  8 -  8) =    -48.51502  eV     1   --> B_2  D_4  S_4  
     e(  9 -  9) =    -48.51480  eV     1   --> A_2  D_2  S_2  
     e( 10 - 10) =    -48.49907  eV     1   --> A_1  D_1  S_1  
     e( 11 - 11) =    -48.49688  eV     1   --> B_2  D_4  S_4  
     e( 12 - 12) =    -36.06215  eV     1   --> B_2  D_4  S_4  
     e( 13 - 13) =    -35.87993  eV     1   --> A_1  D_1  S_1  
     e( 14 - 14) =    -35.85592  eV     1   --> B_1  D_3  S_3  
     e( 15 - 15) =    -15.37509  eV     1   --> A_1  D_1  S_1  
     e( 16 - 16) =    -14.40297  eV     1   --> B_2  D_4  S_4  
     e( 17 - 17) =     -6.53097  eV     1   --> A_1  D_1  S_1  
     e( 18 - 18) =     -3.68778  eV     1   --> A_1  D_1  S_1  
     e( 19 - 19) =     -3.51621  eV     1   --> B_2  D_4  S_4  
     e( 20 - 20) =     -3.13541  eV     1   --> B_1  D_3  S_3  
     e( 21 - 21) =     -2.51538  eV     1   --> A_2  D_2  S_2  
     e( 22 - 22) =     -2.11107  eV     1   --> B_2  D_4  S_4  
     e( 23 - 23) =     -1.55119  eV     1   --> A_1  D_1  S_1  
     e( 24 - 24) =      1.43707  eV     1   --> B_2  D_4  S_4  
     e( 25 - 25) =      1.44421  eV     1   --> A_1  D_1  S_1  
     e( 26 - 26) =      1.85903  eV     1   --> B_1  D_3  S_3  
     e( 27 - 27) =      2.06950  eV     1   --> A_2  D_2  S_2  
     e( 28 - 28) =      3.90563  eV     1   --> A_1  D_1  S_1  
     e( 29 - 29) =      4.06231  eV     1   --> B_2  D_4  S_4  
     e( 30 - 30) =      4.35243  eV     1   --> A_1  D_1  S_1  
     e( 31 - 31) =      4.93251  eV     1   --> B_2  D_4  S_4  
     e( 32 - 32) =      5.33649  eV     1   --> A_1  D_1  S_1  

 **************************************************************************

 **************************************************************************

                    xk=(   0.11000,   0.06351,   0.00000  )

     Band symmetry, C_2v (mm2)  point group:

     e(  1 -  1) =    -61.85918  eV     1   --> A_1  D_1  S_1  
     e(  2 -  2) =    -48.55751  eV     1   --> A_1  D_1  S_1  
     e(  3 -  3) =    -48.55729  eV     1   --> B_2  D_4  S_4  
     e(  4 -  4) =    -48.55705  eV     1   --> B_1  D_3  S_3  
     e(  5 -  5) =    -48.55669  eV     1   --> A_2  D_2  S_2  
     e(  6 -  7) =    -48.51584  eV     2   --> A_1  D_1  S_1  
     e(  6 -  7) =    -48.51584  eV     2   --> B_1  D_3  S_3  
     e(  8 -  8) =    -48.51504  eV     1   --> B_2  D_4  S_4  
     e(  9 -  9) =    -48.51481  eV     1   --> A_2  D_2  S_2  
     e( 10 - 10) =    -48.49905  eV     1   --> A_1  D_1  S_1  
     e( 11 - 11) =    -48.49686  eV     1   --> B_2  D_4  S_4  
     e( 12 - 12) =    -36.06151  eV     1   --> B_2  D_4  S_4  
     e( 13 - 13) =    -35.88283  eV     1   --> A_1  D_1  S_1  
     e( 14 - 14) =    -35.85658  eV     1   --> B_1  D_3  S_3  
     e( 15 - 15) =    -15.36005  eV     1   --> A_1  D_1  S_1  
     e( 16 - 16) =    -14.39475  eV     1   --> B_2  D_4  S_4  
     e( 17 - 17) =     -6.51329  eV     1   --> A_1  D_1  S_1  
     e( 18 - 18) =     -3.72275  eV     1   --> A_1  D_1  S_1  
     e( 19 - 19) =     -3.54785  eV     1   --> B_2  D_4  S_4  
     e( 20 - 20) =     -3.12038  eV     1   --> B_1  D_3  S_3  
     e( 21 - 21) =     -2.53722  eV     1   --> A_2  D_2  S_2  
     e( 22 - 22) =     -2.10842  eV     1   --> B_2  D_4  S_4  
     e( 23 - 23) =     -1.55713  eV     1   --> A_1  D_1  S_1  
     e( 24 - 24) =      1.40023  eV     1   --> A_1  D_1  S_1  
     e( 25 - 25) =      1.41339  eV     1   --> B_2  D_4  S_4  
     e( 26 - 26) =      1.83855  eV     1   --> B_1  D_3  S_3  
     e( 27 - 27) =      2.08875  eV     1   --> A_2  D_2  S_2  
     e( 28 - 28) =      3.92808  eV     1   --> A_1  D_1  S_1  
     e( 29 - 29) =      4.08275  eV     1   --> B_2  D_4  S_4  
     e( 30 - 30) =      4.37378  eV     1   --> A_1  D_1  S_1  
     e( 31 - 31) =      4.95262  eV     1   --> B_2  D_4  S_4  
     e( 32 - 32) =      5.36752  eV     1   --> A_1  D_1  S_1  

 **************************************************************************

 **************************************************************************

                    xk=(   0.11500,   0.06640,   0.00000  )

     Band symmetry, C_2v (mm2)  point group:

     e(  1 -  1) =    -61.85891  eV     1   --> A_1  D_1  S_1  
     e(  2 -  2) =    -48.55750  eV     1   --> A_1  D_1  S_1  
     e(  3 -  3) =    -48.55729  eV     1   --> B_2  D_4  S_4  
     e(  4 -  4) =    -48.55700  eV     1   --> B_1  D_3  S_3  
     e(  5 -  5) =    -48.55665  eV     1   --> A_2  D_2  S_2  
     e(  6 -  7) =    -48.51585  eV     2   --> A_1  D_1  S_1  
     e(  6 -  7) =    -48.51585  eV     2   --> B_1  D_3  S_3  
     e(  8 -  8) =    -48.51506  eV     1   --> B_2  D_4  S_4  
     e(  9 -  9) =    -48.51481  eV     1   --> A_2  D_2  S_2  
     e( 10 - 10) =    -48.49903  eV     1   --> A_1  D_1  S_1  
     e( 11 - 11) =    -48.49683  eV     1   --> B_2  D_4  S_4  
     e( 12 - 12) =    -36.06085  eV     1   --> B_2  D_4  S_4  
     e( 13 - 13) =    -35.88583  eV     1   --> A_1  D_1  S_1  
     e( 14 - 14) =    -35.85726  eV     1   --> B_1  D_3  S_3  
     e( 15 - 15) =    -15.34438  eV     1   --> A_1  D_1  S_1  
     e( 16 - 16) =    -14.38618  eV     1   --> B_2  D_4  S_4  
     e( 17 - 17) =     -6.49497  eV     1   --> A_1  D_1  S_1  
     e( 18 - 18) =     -3.75877  eV     1   --> A_1  D_1  S_1  
     e( 19 - 19) =     -3.58003  eV     1   --> B_2  D_4  S_4  
     e( 20 - 20) =     -3.10474  eV     1   --> B_1  D_3  S_3  
     e( 21 - 21) =     -2.55964  eV     1   --> A_2  D_2  S_2  
     e( 22 - 22) =     -2.10710  eV     1   --> B_2  D_4  S_4  
     e( 23 - 23) =     -1.56369  eV     1   --> A_1  D_1  S_1  
     e( 24 - 24) =      1.35664  eV     1   --> A_1  D_1  S_1  
     e( 25 - 25) =      1.39089  eV     1   --> B_2  D_4  S_4  
     e( 26 - 26) =      1.81755  eV     1   --> B_1  D_3  S_3  
     e( 27 - 27) =      2.10842  eV     1   --> A_2  D_2  S_2  
     e( 28 - 28) =      3.95107  eV     1   --> A_1  D_1  S_1  
     e( 29 - 29) =      4.10408  eV     1   --> B_2  D_4  S_4  
     e( 30 - 30) =      4.39590  eV     1   --> A_1  D_1  S_1  
     e( 31 - 31) =      4.97363  eV     1   --> B_2  D_4  S_4  
     e( 32 - 32) =      5.39826  eV     1   --> A_1  D_1  S_1  

 **************************************************************************

 **************************************************************************

                    xk=(   0.12000,   0.06928,   0.00000  )

     Band symmetry, C_2v (mm2)  point group:

     e(  1 -  1) =    -61.85863  eV     1   --> A_1  D_1  S_1  
     e(  2 -  2) =    -48.55749  eV     1   --> A_1  D_1  S_1  
     e(  3 -  3) =    -48.55730  eV     1   --> B_2  D_4  S_4  
     e(  4 -  4) =    -48.55694  eV     1   --> B_1  D_3  S_3  
     e(  5 -  5) =    -48.55660  eV     1   --> A_2  D_2  S_2  
     e(  6 -  7) =    -48.51585  eV     2   --> A_1  D_1  S_1  
     e(  6 -  7) =    -48.51585  eV     2   --> B_1  D_3  S_3  
     e(  8 -  8) =    -48.51509  eV     1   --> B_2  D_4  S_4  
     e(  9 -  9) =    -48.51482  eV     1   --> A_2  D_2  S_2  
     e( 10 - 10) =    -48.49900  eV     1   --> A_1  D_1  S_1  
     e( 11 - 11) =    -48.49681  eV     1   --> B_2  D_4  S_4  
     e( 12 - 12) =    -36.06017  eV     1   --> B_2  D_4  S_4  
     e( 13 - 13) =    -35.88895  eV     1   --> A_1  D_1  S_1  
     e( 14 - 14) =    -35.85797  eV     1   --> B_1  D_3  S_3  
     e( 15 - 15) =    -15.32807  eV     1   --> A_1  D_1  S_1  
     e( 16 - 16) =    -14.37727  eV     1   --> B_2  D_4  S_4  
     e( 17 - 17) =     -6.47603  eV     1   --> A_1  D_1  S_1  
     e( 18 - 18) =     -3.79578  eV     1   --> A_1  D_1  S_1  
     e( 19 - 19) =     -3.61274  eV     1   --> B_2  D_4  S_4  
     e( 20 - 20) =     -3.08849  eV     1   --> B_1  D_3  S_3  
     e( 21 - 21) =     -2.58262  eV     1   --> A_2  D_2  S_2  
     e( 22 - 22) =     -2.10719  eV     1   --> B_2  D_4  S_4  
     e( 23 - 23) =     -1.57090  eV     1   --> A_1  D_1  S_1  
     e( 24 - 24) =      1.31358  eV     1   --> A_1  D_1  S_1  
     e( 25 - 25) =      1.36975  eV     1   --> B_2  D_4  S_4  
     e( 26 - 26) =      1.79605  eV     1   --> B_1  D_3  S_3  
     e( 27 - 27) =      2.12846  eV     1   --> A_2  D_2  S_2  
     e( 28 - 28) =      3.97460  eV     1   --> A_1  D_1  S_1  
     e( 29 - 29) =      4.12629  eV     1   --> B_2  D_4  S_4  
     e( 30 - 30) =      4.41879  eV     1   --> A_1  D_1  S_1  
     e( 31 - 31) =      4.99554  eV     1   --> B_2  D_4  S_4  
     e( 32 - 32) =      5.42874  eV     1   --> A_1  D_1  S_1  

 **************************************************************************

 **************************************************************************

                    xk=(   0.12500,   0.07217,   0.00000  )

     Band symmetry, C_2v (mm2)  point group:

     e(  1 -  1) =    -61.85834  eV     1   --> A_1  D_1  S_1  
     e(  2 -  2) =    -48.55748  eV     1   --> A_1  D_1  S_1  
     e(  3 -  3) =    -48.55730  eV     1   --> B_2  D_4  S_4  
     e(  4 -  4) =    -48.55689  eV     1   --> B_1  D_3  S_3  
     e(  5 -  5) =    -48.55654  eV     1   --> A_2  D_2  S_2  
     e(  6 -  7) =    -48.51586  eV     2   --> A_1  D_1  S_1  
     e(  6 -  7) =    -48.51586  eV     2   --> B_1  D_3  S_3  
     e(  8 -  8) =    -48.51512  eV     1   --> B_2  D_4  S_4  
     e(  9 -  9) =    -48.51482  eV     1   --> A_2  D_2  S_2  
     e( 10 - 10) =    -48.49898  eV     1   --> A_1  D_1  S_1  
     e( 11 - 11) =    -48.49678  eV     1   --> B_2  D_4  S_4  
     e( 12 - 12) =    -36.05946  eV     1   --> B_2  D_4  S_4  
     e( 13 - 13) =    -35.89216  eV     1   --> A_1  D_1  S_1  
     e( 14 - 14) =    -35.85870  eV     1   --> B_1  D_3  S_3  
     e( 15 - 15) =    -15.31113  eV     1   --> A_1  D_1  S_1  
     e( 16 - 16) =    -14.36801  eV     1   --> B_2  D_4  S_4  
     e( 17 - 17) =     -6.45651  eV     1   --> A_1  D_1  S_1  
     e( 18 - 18) =     -3.83370  eV     1   --> A_1  D_1  S_1  
     e( 19 - 19) =     -3.64596  eV     1   --> B_2  D_4  S_4  
     e( 20 - 20) =     -3.07166  eV     1   --> B_1  D_3  S_3  
     e( 21 - 21) =     -2.60611  eV     1   --> A_2  D_2  S_2  
     e( 22 - 22) =     -2.10874  eV     1   --> B_2  D_4  S_4  
     e( 23 - 23) =     -1.57880  eV     1   --> A_1  D_1  S_1  
     e( 24 - 24) =      1.27120  eV     1   --> A_1  D_1  S_1  
     e( 25 - 25) =      1.35012  eV     1   --> B_2  D_4  S_4  
     e( 26 - 26) =      1.77411  eV     1   --> B_1  D_3  S_3  
     e( 27 - 27) =      2.14882  eV     1   --> A_2  D_2  S_2  
     e( 28 - 28) =      3.99868  eV     1   --> A_1  D_1  S_1  
     e( 29 - 29) =      4.14940  eV     1   --> B_2  D_4  S_4  
     e( 30 - 30) =      4.44246  eV     1   --> A_1  D_1  S_1  
     e( 31 - 31) =      5.01834  eV     1   --> B_2  D_4  S_4  
     e( 32 - 32) =      5.45900  eV     1   --> A_1  D_1  S_1  

 **************************************************************************

 **************************************************************************

                    xk=(   0.13000,   0.07506,   0.00000  )

     Band symmetry, C_2v (mm2)  point group:

     e(  1 -  1) =    -61.85804  eV     1   --> A_1  D_1  S_1  
     e(  2 -  2) =    -48.55747  eV     1   --> A_1  D_1  S_1  
     e(  3 -  3) =    -48.55731  eV     1   --> B_2  D_4  S_4  
     e(  4 -  4) =    -48.55683  eV     1   --> B_1  D_3  S_3  
     e(  5 -  5) =    -48.55649  eV     1   --> A_2  D_2  S_2  
     e(  6 -  7) =    -48.51587  eV     2   --> A_1  D_1  S_1  
     e(  6 -  7) =    -48.51587  eV     2   --> B_1  D_3  S_3  
     e(  8 -  8) =    -48.51515  eV     1   --> B_2  D_4  S_4  
     e(  9 -  9) =    -48.51482  eV     1   --> A_2  D_2  S_2  
     e( 10 - 10) =    -48.49895  eV     1   --> A_1  D_1  S_1  
     e( 11 - 11) =    -48.49675  eV     1   --> B_2  D_4  S_4  
     e( 12 - 12) =    -36.05873  eV     1   --> B_2  D_4  S_4  
     e( 13 - 13) =    -35.89548  eV     1   --> A_1  D_1  S_1  
     e( 14 - 14) =    -35.85945  eV     1   --> B_1  D_3  S_3  
     e( 15 - 15) =    -15.29358  eV     1   --> A_1  D_1  S_1  
     e( 16 - 16) =    -14.35842  eV     1   --> B_2  D_4  S_4  
     e( 17 - 17) =     -6.43643  eV     1   --> A_1  D_1  S_1  
     e( 18 - 18) =     -3.87249  eV     1   --> A_1  D_1  S_1  
     e( 19 - 19) =     -3.67967  eV     1   --> B_2  D_4  S_4  
     e( 20 - 20) =     -3.05425  eV     1   --> B_1  D_3  S_3  
     e( 21 - 21) =     -2.63007  eV     1   --> A_2  D_2  S_2  
     e( 22 - 22) =     -2.11177  eV     1   --> B_2  D_4  S_4  
     e( 23 - 23) =     -1.58743  eV     1   --> A_1  D_1  S_1  
     e( 24 - 24) =      1.22964  eV     1   --> A_1  D_1  S_1  
     e( 25 - 25) =      1.33212  eV     1   --> B_2  D_4  S_4  
     e( 26 - 26) =      1.75178  eV     1   --> B_1  D_3  S_3  
     e( 27 - 27) =      2.16945  eV     1   --> A_2  D_2  S_2  
     e( 28 - 28) =      4.02333  eV     1   --> A_1  D_1  S_1  
     e( 29 - 29) =      4.17338  eV     1   --> B_2  D_4  S_4  
     e( 30 - 30) =      4.46689  eV     1   --> A_1  D_1  S_1  
     e( 31 - 31) =      5.04202  eV     1   --> B_2  D_4  S_4  
     e( 32 - 32) =      5.48909  eV     1   --> A_1  D_1  S_1  

 **************************************************************************

 **************************************************************************

                    xk=(   0.13500,   0.07794,   0.00000  )

     Band symmetry, C_2v (mm2)  point group:

     e(  1 -  1) =    -61.85774  eV     1   --> A_1  D_1  S_1  
     e(  2 -  2) =    -48.55746  eV     1   --> A_1  D_1  S_1  
     e(  3 -  3) =    -48.55731  eV     1   --> B_2  D_4  S_4  
     e(  4 -  4) =    -48.55678  eV     1   --> B_1  D_3  S_3  
     e(  5 -  5) =    -48.55643  eV     1   --> A_2  D_2  S_2  
     e(  6 -  7) =    -48.51588  eV     2   --> A_1  D_1  S_1  
     e(  6 -  7) =    -48.51588  eV     2   --> B_1  D_3  S_3  
     e(  8 -  8) =    -48.51518  eV     1   --> B_2  D_4  S_4  
     e(  9 -  9) =    -48.51483  eV     1   --> A_2  D_2  S_2  
     e( 10 - 10) =    -48.49893  eV     1   --> A_1  D_1  S_1  
     e( 11 - 11) =    -48.49672  eV     1   --> B_2  D_4  S_4  
     e( 12 - 12) =    -36.05798  eV     1   --> B_2  D_4  S_4  
     e( 13 - 13) =    -35.89890  eV     1   --> A_1  D_1  S_1  
     e( 14 - 14) =    -35.86023  eV     1   --> B_1  D_3  S_3  
     e( 15 - 15) =    -15.27542  eV     1   --> A_1  D_1  S_1  
     e( 16 - 16) =    -14.34850  eV     1   --> B_2  D_4  S_4  
     e( 17 - 17) =     -6.41583  eV     1   --> A_1  D_1  S_1  
     e( 18 - 18) =     -3.91207  eV     1   --> A_1  D_1  S_1  
     e( 19 - 19) =     -3.71385  eV     1   --> B_2  D_4  S_4  
     e( 20 - 20) =     -3.03629  eV     1   --> B_1  D_3  S_3  
     e( 21 - 21) =     -2.65445  eV     1   --> A_2  D_2  S_2  
     e( 22 - 22) =     -2.11631  eV     1   --> B_2  D_4  S_4  
     e( 23 - 23) =     -1.59682  eV     1   --> A_1  D_1  S_1  
     e( 24 - 24) =      1.18903  eV     1   --> A_1  D_1  S_1  
     e( 25 - 25) =      1.31587  eV     1   --> B_2  D_4  S_4  
     e( 26 - 26) =      1.72909  eV     1   --> B_1  D_3  S_3  
     e( 27 - 27) =      2.19032  eV     1   --> A_2  D_2  S_2  
     e( 28 - 28) =      4.04854  eV     1   --> A_1  D_1  S_1  
     e( 29 - 29) =      4.19825  eV     1   --> B_2  D_4  S_4  
     e( 30 - 30) =      4.49209  eV     1   --> A_1  D_1  S_1  
     e( 31 - 31) =      5.06659  eV     1   --> B_2  D_4  S_4  
     e( 32 - 32) =      5.51908  eV     1   --> A_1  D_1  S_1  

 **************************************************************************

 **************************************************************************

                    xk=(   0.14000,   0.08083,   0.00000  )

     Band symmetry, C_2v (mm2)  point group:

     e(  1 -  1) =    -61.85742  eV     1   --> A_1  D_1  S_1  
     e(  2 -  2) =    -48.55745  eV     1   --> A_1  D_1  S_1  
     e(  3 -  3) =    -48.55732  eV     1   --> B_2  D_4  S_4  
     e(  4 -  4) =    -48.55672  eV     1   --> B_1  D_3  S_3  
     e(  5 -  5) =    -48.55638  eV     1   --> A_2  D_2  S_2  
     e(  6 -  7) =    -48.51589  eV     2   --> A_1  D_1  S_1  
     e(  6 -  7) =    -48.51589  eV     2   --> B_1  D_3  S_3  
     e(  8 -  8) =    -48.51521  eV     1   --> B_2  D_4  S_4  
     e(  9 -  9) =    -48.51484  eV     1   --> A_2  D_2  S_2  
     e( 10 - 10) =    -48.49890  eV     1   --> A_1  D_1  S_1  
     e( 11 - 11) =    -48.49669  eV     1   --> B_2  D_4  S_4  
     e( 12 - 12) =    -36.05720  eV     1   --> B_2  D_4  S_4  
     e( 13 - 13) =    -35.90241  eV     1   --> A_1  D_1  S_1  
     e( 14 - 14) =    -35.86102  eV     1   --> B_1  D_3  S_3  
     e( 15 - 15) =    -15.25666  eV     1   --> A_1  D_1  S_1  
     e( 16 - 16) =    -14.33825  eV     1   --> B_2  D_4  S_4  
     e( 17 - 17) =     -6.39476  eV     1   --> A_1  D_1  S_1  
     e( 18 - 18) =     -3.95238  eV     1   --> A_1  D_1  S_1  
     e( 19 - 19) =     -3.74849  eV     1   --> B_2  D_4  S_4  
     e( 20 - 20) =     -3.01778  eV     1   --> B_1  D_3  S_3  
     e( 21 - 21) =     -2.67923  eV     1   --> A_2  D_2  S_2  
     e( 22 - 22) =     -2.12238  eV     1   --> B_2  D_4  S_4  
     e( 23 - 23) =     -1.60700  eV     1   --> A_1  D_1  S_1  
     e( 24 - 24) =      1.14948  eV     1   --> A_1  D_1  S_1  
     e( 25 - 25) =      1.30147  eV     1   --> B_2  D_4  S_4  
     e( 26 - 26) =      1.70610  eV     1   --> B_1  D_3  S_3  
     e( 27 - 27) =      2.21137  eV     1   --> A_2  D_2  S_2  
     e( 28 - 28) =      4.07434  eV     1   --> A_1  D_1  S_1  
     e( 29 - 29) =      4.22398  eV     1   --> B_2  D_4  S_4  
     e( 30 - 30) =      4.51807  eV     1   --> A_1  D_1  S_1  
     e( 31 - 31) =      5.09204  eV     1   --> B_2  D_4  S_4  
     e( 32 - 32) =      5.54902  eV     1   --> A_1  D_1  S_1  

 **************************************************************************

 **************************************************************************

                    xk=(   0.14500,   0.08372,   0.00000  )

     Band symmetry, C_2v (mm2)  point group:

     e(  1 -  1) =    -61.85710  eV     1   --> A_1  D_1  S_1  
     e(  2 -  2) =    -48.55744  eV     1   --> A_1  D_1  S_1  
     e(  3 -  3) =    -48.55732  eV     1   --> B_2  D_4  S_4  
     e(  4 -  4) =    -48.55666  eV     1   --> B_1  D_3  S_3  
     e(  5 -  5) =    -48.55632  eV     1   --> A_2  D_2  S_2  
     e(  6 -  7) =    -48.51590  eV     2   --> A_1  D_1  S_1  
     e(  6 -  7) =    -48.51590  eV     2   --> B_1  D_3  S_3  
     e(  8 -  8) =    -48.51524  eV     1   --> B_2  D_4  S_4  
     e(  9 -  9) =    -48.51484  eV     1   --> A_2  D_2  S_2  
     e( 10 - 10) =    -48.49888  eV     1   --> A_1  D_1  S_1  
     e( 11 - 11) =    -48.49666  eV     1   --> B_2  D_4  S_4  
     e( 12 - 12) =    -36.05641  eV     1   --> B_2  D_4  S_4  
     e( 13 - 13) =    -35.90601  eV     1   --> A_1  D_1  S_1  
     e( 14 - 14) =    -35.86184  eV     1   --> B_1  D_3  S_3  
     e( 15 - 15) =    -15.23731  eV     1   --> A_1  D_1  S_1  
     e( 16 - 16) =    -14.32769  eV     1   --> B_2  D_4  S_4  
     e( 17 - 17) =     -6.37324  eV     1   --> A_1  D_1  S_1  
     e( 18 - 18) =     -3.99335  eV     1   --> A_1  D_1  S_1  
     e( 19 - 19) =     -3.78357  eV     1   --> B_2  D_4  S_4  
     e( 20 - 20) =     -2.99875  eV     1   --> B_1  D_3  S_3  
     e( 21 - 21) =     -2.70435  eV     1   --> A_2  D_2  S_2  
     e( 22 - 22) =     -2.12996  eV     1   --> B_2  D_4  S_4  
     e( 23 - 23) =     -1.61799  eV     1   --> A_1  D_1  S_1  
     e( 24 - 24) =      1.11113  eV     1   --> A_1  D_1  S_1  
     e( 25 - 25) =      1.28900  eV     1   --> B_2  D_4  S_4  
     e( 26 - 26) =      1.68284  eV     1   --> B_1  D_3  S_3  
     e( 27 - 27) =      2.23256  eV     1   --> A_2  D_2  S_2  
     e( 28 - 28) =      4.10072  eV     1   --> A_1  D_1  S_1  
     e( 29 - 29) =      4.25058  eV     1   --> B_2  D_4  S_4  
     e( 30 - 30) =      4.54483  eV     1   --> A_1  D_1  S_1  
     e( 31 - 31) =      5.11836  eV     1   --> B_2  D_4  S_4  
     e( 32 - 32) =      5.57898  eV     1   --> A_1  D_1  S_1  

 **************************************************************************

 **************************************************************************

                    xk=(   0.15000,   0.08660,   0.00000  )

     Band symmetry, C_2v (mm2)  point group:

     e(  1 -  1) =    -61.85677  eV     1   --> A_1  D_1  S_1  
     e(  2 -  2) =    -48.55743  eV     1   --> A_1  D_1  S_1  
     e(  3 -  3) =    -48.55733  eV     1   --> B_2  D_4  S_4  
     e(  4 -  4) =    -48.55660  eV     1   --> B_1  D_3  S_3  
     e(  5 -  5) =    -48.55627  eV     1   --> A_2  D_2  S_2  
     e(  6 -  7) =    -48.51590  eV     2   --> A_1  D_1  S_1  
     e(  6 -  7) =    -48.51590  eV     2   --> B_1  D_3  S_3  
     e(  8 -  8) =    -48.51527  eV     1   --> B_2  D_4  S_4  
     e(  9 -  9) =    -48.51485  eV     1   --> A_2  D_2  S_2  
     e( 10 - 10) =    -48.49885  eV     1   --> A_1  D_1  S_1  
     e( 11 - 11) =    -48.49663  eV     1   --> B_2  D_4  S_4  
     e( 12 - 12) =    -36.05560  eV     1   --> B_2  D_4  S_4  
     e( 13 - 13) =    -35.90970  eV     1   --> A_1  D_1  S_1  
     e( 14 - 14) =    -35.86268  eV     1   --> B_1  D_3  S_3  
     e( 15 - 15) =    -15.21739  eV     1   --> A_1  D_1  S_1  
     e( 16 - 16) =    -14.31681  eV     1   --> B_2  D_4  S_4  
     e( 17 - 17) =     -6.35133  eV     1   --> A_1  D_1  S_1  
     e( 18 - 18) =     -4.03491  eV     1   --> A_1  D_1  S_1  
     e( 19 - 19) =     -3.81911  eV     1   --> B_2  D_4  S_4  
     e( 20 - 20) =     -2.97920  eV     1   --> B_1  D_3  S_3  
     e( 21 - 21) =     -2.72978  eV     1   --> A_2  D_2  S_2  
     e( 22 - 22) =     -2.13906  eV     1   --> B_2  D_4  S_4  
     e( 23 - 23) =     -1.62983  eV     1   --> A_1  D_1  S_1  
     e( 24 - 24) =      1.07407  eV     1   --> A_1  D_1  S_1  
     e( 25 - 25) =      1.27852  eV     1   --> B_2  D_4  S_4  
     e( 26 - 26) =      1.65936  eV     1   --> B_1  D_3  S_3  
     e( 27 - 27) =      2.25386  eV     1   --> A_2  D_2  S_2  
     e( 28 - 28) =      4.12769  eV     1   --> A_1  D_1  S_1  
     e( 29 - 29) =      4.27804  eV     1   --> B_2  D_4  S_4  
     e( 30 - 30) =      4.57237  eV     1   --> A_1  D_1  S_1  
     e( 31 - 31) =      5.14556  eV     1   --> B_2  D_4  S_4  
     e( 32 - 32) =      5.60901  eV     1   --> A_1  D_1  S_1  

 **************************************************************************

 **************************************************************************

                    xk=(   0.15500,   0.08949,   0.00000  )

     Band symmetry, C_2v (mm2)  point group:

     e(  1 -  1) =    -61.85644  eV     1   --> A_1  D_1  S_1  
     e(  2 -  3) =    -48.55742  eV     2   --> A_1  D_1  S_1  
     e(  2 -  3) =    -48.55742  eV     2   --> B_2  D_4  S_4  
     e(  4 -  4) =    -48.55654  eV     1   --> B_1  D_3  S_3  
     e(  5 -  5) =    -48.55621  eV     1   --> A_2  D_2  S_2  
     e(  6 -  7) =    -48.51591  eV     2   --> A_1  D_1  S_1  
     e(  6 -  7) =    -48.51591  eV     2   --> B_1  D_3  S_3  
     e(  8 -  8) =    -48.51530  eV     1   --> B_2  D_4  S_4  
     e(  9 -  9) =    -48.51485  eV     1   --> A_2  D_2  S_2  
     e( 10 - 10) =    -48.49882  eV     1   --> A_1  D_1  S_1  
     e( 11 - 11) =    -48.49660  eV     1   --> B_2  D_4  S_4  
     e( 12 - 12) =    -36.05477  eV     1   --> B_2  D_4  S_4  
     e( 13 - 13) =    -35.91347  eV     1   --> A_1  D_1  S_1  
     e( 14 - 14) =    -35.86354  eV     1   --> B_1  D_3  S_3  
     e( 15 - 15) =    -15.19690  eV     1   --> A_1  D_1  S_1  
     e( 16 - 16) =    -14.30563  eV     1   --> B_2  D_4  S_4  
     e( 17 - 17) =     -6.32908  eV     1   --> A_1  D_1  S_1  
     e( 18 - 18) =     -4.07700  eV     1   --> A_1  D_1  S_1  
     e( 19 - 19) =     -3.85507  eV     1   --> B_2  D_4  S_4  
     e( 20 - 20) =     -2.95916  eV     1   --> B_1  D_3  S_3  
     e( 21 - 21) =     -2.75548  eV     1   --> A_2  D_2  S_2  
     e( 22 - 22) =     -2.14963  eV     1   --> B_2  D_4  S_4  
     e( 23 - 23) =     -1.64251  eV     1   --> A_1  D_1  S_1  
     e( 24 - 24) =      1.03840  eV     1   --> A_1  D_1  S_1  
     e( 25 - 25) =      1.27010  eV     1   --> B_2  D_4  S_4  
     e( 26 - 26) =      1.63570  eV     1   --> B_1  D_3  S_3  
     e( 27 - 27) =      2.27522  eV     1   --> A_2  D_2  S_2  
     e( 28 - 28) =      4.15526  eV     1   --> A_1  D_1  S_1  
     e( 29 - 29) =      4.30636  eV     1   --> B_2  D_4  S_4  
     e( 30 - 30) =      4.60070  eV     1   --> A_1  D_1  S_1  
     e( 31 - 31) =      5.17362  eV     1   --> B_2  D_4  S_4  
     e( 32 - 32) =      5.63916  eV     1   --> A_1  D_1  S_1  

 **************************************************************************

 **************************************************************************

                    xk=(   0.16000,   0.09238,   0.00000  )

     Band symmetry, C_2v (mm2)  point group:

     e(  1 -  1) =    -61.85609  eV     1   --> A_1  D_1  S_1  
     e(  2 -  3) =    -48.55741  eV     2   --> A_1  D_1  S_1  
     e(  2 -  3) =    -48.55741  eV     2   --> B_2  D_4  S_4  
     e(  4 -  4) =    -48.55648  eV     1   --> B_1  D_3  S_3  
     e(  5 -  5) =    -48.55615  eV     1   --> A_2  D_2  S_2  
     e(  6 -  7) =    -48.51592  eV     2   --> A_1  D_1  S_1  
     e(  6 -  7) =    -48.51592  eV     2   --> B_1  D_3  S_3  
     e(  8 -  8) =    -48.51533  eV     1   --> B_2  D_4  S_4  
     e(  9 -  9) =    -48.51486  eV     1   --> A_2  D_2  S_2  
     e( 10 - 10) =    -48.49879  eV     1   --> A_1  D_1  S_1  
     e( 11 - 11) =    -48.49657  eV     1   --> B_2  D_4  S_4  
     e( 12 - 12) =    -36.05392  eV     1   --> B_2  D_4  S_4  
     e( 13 - 13) =    -35.91731  eV     1   --> A_1  D_1  S_1  
     e( 14 - 14) =    -35.86442  eV     1   --> B_1  D_3  S_3  
     e( 15 - 15) =    -15.17585  eV     1   --> A_1  D_1  S_1  
     e( 16 - 16) =    -14.29414  eV     1   --> B_2  D_4  S_4  
     e( 17 - 17) =     -6.30653  eV     1   --> A_1  D_1  S_1  
     e( 18 - 18) =     -4.11954  eV     1   --> A_1  D_1  S_1  
     e( 19 - 19) =     -3.89147  eV     1   --> B_2  D_4  S_4  
     e( 20 - 20) =     -2.93863  eV     1   --> B_1  D_3  S_3  
     e( 21 - 21) =     -2.78142  eV     1   --> A_2  D_2  S_2  
     e( 22 - 22) =     -2.16164  eV     1   --> B_2  D_4  S_4  
     e( 23 - 23) =     -1.65606  eV     1   --> A_1  D_1  S_1  
     e( 24 - 24) =      1.00423  eV     1   --> A_1  D_1  S_1  
     e( 25 - 25) =      1.26375  eV     1   --> B_2  D_4  S_4  
     e( 26 - 26) =      1.61191  eV     1   --> B_1  D_3  S_3  
     e( 27 - 27) =      2.29660  eV     1   --> A_2  D_2  S_2  
     e( 28 - 28) =      4.18342  eV     1   --> A_1  D_1  S_1  
     e( 29 - 29) =      4.33553  eV     1   --> B_2  D_4  S_4  
     e( 30 - 30) =      4.62982  eV     1   --> A_1  D_1  S_1  
     e( 31 - 31) =      5.20254  eV     1   --> B_2  D_4  S_4  
     e( 32 - 32) =      5.66947  eV     1   --> A_1  D_1  S_1  

 **************************************************************************

 **************************************************************************

                    xk=(   0.16500,   0.09526,   0.00000  )

     Band symmetry, C_2v (mm2)  point group:

     e(  1 -  1) =    -61.85574  eV     1   --> A_1  D_1  S_1  
     e(  2 -  3) =    -48.55740  eV     2   --> A_1  D_1  S_1  
     e(  2 -  3) =    -48.55740  eV     2   --> B_2  D_4  S_4  
     e(  4 -  4) =    -48.55642  eV     1   --> B_1  D_3  S_3  
     e(  5 -  5) =    -48.55608  eV     1   --> A_2  D_2  S_2  
     e(  6 -  7) =    -48.51593  eV     2   --> A_1  D_1  S_1  
     e(  6 -  7) =    -48.51593  eV     2   --> B_1  D_3  S_3  
     e(  8 -  8) =    -48.51537  eV     1   --> B_2  D_4  S_4  
     e(  9 -  9) =    -48.51487  eV     1   --> A_2  D_2  S_2  
     e( 10 - 10) =    -48.49876  eV     1   --> A_1  D_1  S_1  
[...]
     e( 16 - 16) =    -13.50274  eV     1   --> B_2  D_4  S_4  
     e( 17 - 17) =     -6.93347  eV     1   --> A_1  D_1  S_1  
     e( 18 - 18) =     -6.03361  eV     1   --> B_2  D_4  S_4  
     e( 19 - 19) =     -5.06314  eV     1   --> A_1  D_1  S_1  
     e( 20 - 20) =     -3.93049  eV     1   --> A_2  D_2  S_2  
     e( 21 - 21) =     -3.10299  eV     1   --> B_2  D_4  S_4  
     e( 22 - 22) =     -1.94331  eV     1   --> A_1  D_1  S_1  
     e( 23 - 23) =     -1.75915  eV     1   --> B_1  D_3  S_3  
     e( 24 - 24) =      0.86976  eV     1   --> B_1  D_3  S_3  
     e( 25 - 25) =      1.22370  eV     1   --> A_1  D_1  S_1  
     e( 26 - 26) =      2.43258  eV     1   --> B_2  D_4  S_4  
     e( 27 - 27) =      3.01111  eV     1   --> A_2  D_2  S_2  
     e( 28 - 28) =      4.48574  eV     1   --> A_1  D_1  S_1  
     e( 29 - 29) =      6.19353  eV     1   --> B_2  D_4  S_4  
     e( 30 - 30) =      6.29921  eV     1   --> A_1  D_1  S_1  
     e( 31 - 31) =      7.05316  eV     1   --> B_2  D_4  S_4  
     e( 32 - 32) =      7.77920  eV     1   --> A_1  D_1  S_1  

 **************************************************************************

 **************************************************************************

                    xk=(   0.46500,   0.26847,   0.00000  )

     Band symmetry, C_2v (mm2)  point group:

     e(  1 -  1) =    -61.83618  eV     1   --> A_1  D_1  S_1  
     e(  2 -  2) =    -48.55779  eV     1   --> B_2  D_4  S_4  
     e(  3 -  3) =    -48.55679  eV     1   --> A_1  D_1  S_1  
     e(  4 -  4) =    -48.55281  eV     1   --> B_1  D_3  S_3  
     e(  5 -  5) =    -48.55260  eV     1   --> A_2  D_2  S_2  
     e(  6 -  6) =    -48.51720  eV     1   --> B_2  D_4  S_4  
     e(  7 -  7) =    -48.51647  eV     1   --> B_1  D_3  S_3  
     e(  8 -  8) =    -48.51615  eV     1   --> A_1  D_1  S_1  
     e(  9 -  9) =    -48.51522  eV     1   --> A_2  D_2  S_2  
     e( 10 - 10) =    -48.49710  eV     1   --> A_1  D_1  S_1  
     e( 11 - 11) =    -48.49468  eV     1   --> B_2  D_4  S_4  
     e( 12 - 12) =    -36.13476  eV     1   --> A_1  D_1  S_1  
     e( 13 - 13) =    -36.00476  eV     1   --> B_2  D_4  S_4  
     e( 14 - 14) =    -35.91458  eV     1   --> B_1  D_3  S_3  
     e( 15 - 15) =    -13.66690  eV     1   --> A_1  D_1  S_1  
     e( 16 - 16) =    -13.49800  eV     1   --> B_2  D_4  S_4  
     e( 17 - 17) =     -6.94671  eV     1   --> A_1  D_1  S_1  
     e( 18 - 18) =     -6.04514  eV     1   --> B_2  D_4  S_4  
     e( 19 - 19) =     -5.06447  eV     1   --> A_1  D_1  S_1  
     e( 20 - 20) =     -3.93501  eV     1   --> A_2  D_2  S_2  
     e( 21 - 21) =     -3.10593  eV     1   --> B_2  D_4  S_4  
     e( 22 - 22) =     -1.93379  eV     1   --> A_1  D_1  S_1  
     e( 23 - 23) =     -1.75416  eV     1   --> B_1  D_3  S_3  
     e( 24 - 24) =      0.87002  eV     1   --> B_1  D_3  S_3  
     e( 25 - 25) =      1.23383  eV     1   --> A_1  D_1  S_1  
     e( 26 - 26) =      2.44007  eV     1   --> B_2  D_4  S_4  
     e( 27 - 27) =      3.01286  eV     1   --> A_2  D_2  S_2  
     e( 28 - 28) =      4.45415  eV     1   --> A_1  D_1  S_1  
     e( 29 - 29) =      6.19970  eV     1   --> B_2  D_4  S_4  
     e( 30 - 30) =      6.31627  eV     1   --> A_1  D_1  S_1  
     e( 31 - 31) =      7.05815  eV     1   --> B_2  D_4  S_4  
     e( 32 - 32) =      7.81257  eV     1   --> A_1  D_1  S_1  

 **************************************************************************

 **************************************************************************

                    xk=(   0.47000,   0.27135,   0.00000  )

     Band symmetry, C_2v (mm2)  point group:

     e(  1 -  1) =    -61.83610  eV     1   --> A_1  D_1  S_1  
     e(  2 -  2) =    -48.55779  eV     1   --> B_2  D_4  S_4  
     e(  3 -  3) =    -48.55679  eV     1   --> A_1  D_1  S_1  
     e(  4 -  4) =    -48.55280  eV     1   --> B_1  D_3  S_3  
     e(  5 -  5) =    -48.55259  eV     1   --> A_2  D_2  S_2  
     e(  6 -  6) =    -48.51720  eV     1   --> B_2  D_4  S_4  
     e(  7 -  7) =    -48.51647  eV     1   --> B_1  D_3  S_3  
     e(  8 -  8) =    -48.51615  eV     1   --> A_1  D_1  S_1  
     e(  9 -  9) =    -48.51522  eV     1   --> A_2  D_2  S_2  
     e( 10 - 10) =    -48.49709  eV     1   --> A_1  D_1  S_1  
     e( 11 - 11) =    -48.49467  eV     1   --> B_2  D_4  S_4  
     e( 12 - 12) =    -36.13566  eV     1   --> A_1  D_1  S_1  
     e( 13 - 13) =    -36.00456  eV     1   --> B_2  D_4  S_4  
     e( 14 - 14) =    -35.91479  eV     1   --> B_1  D_3  S_3  
     e( 15 - 15) =    -13.65857  eV     1   --> A_1  D_1  S_1  
     e( 16 - 16) =    -13.49388  eV     1   --> B_2  D_4  S_4  
     e( 17 - 17) =     -6.95825  eV     1   --> A_1  D_1  S_1  
     e( 18 - 18) =     -6.05516  eV     1   --> B_2  D_4  S_4  
     e( 19 - 19) =     -5.06567  eV     1   --> A_1  D_1  S_1  
     e( 20 - 20) =     -3.93894  eV     1   --> A_2  D_2  S_2  
     e( 21 - 21) =     -3.10847  eV     1   --> B_2  D_4  S_4  
     e( 22 - 22) =     -1.92537  eV     1   --> A_1  D_1  S_1  
     e( 23 - 23) =     -1.74984  eV     1   --> B_1  D_3  S_3  
     e( 24 - 24) =      0.87030  eV     1   --> B_1  D_3  S_3  
     e( 25 - 25) =      1.24280  eV     1   --> A_1  D_1  S_1  
     e( 26 - 26) =      2.44655  eV     1   --> B_2  D_4  S_4  
     e( 27 - 27) =      3.01436  eV     1   --> A_2  D_2  S_2  
     e( 28 - 28) =      4.42645  eV     1   --> A_1  D_1  S_1  
     e( 29 - 29) =      6.20534  eV     1   --> B_2  D_4  S_4  
     e( 30 - 30) =      6.33137  eV     1   --> A_1  D_1  S_1  
     e( 31 - 31) =      7.06164  eV     1   --> B_2  D_4  S_4  
     e( 32 - 32) =      7.83848  eV     1   --> A_1  D_1  S_1  

 **************************************************************************

 **************************************************************************

                    xk=(   0.47500,   0.27424,   0.00000  )

     Band symmetry, C_2v (mm2)  point group:

     e(  1 -  1) =    -61.83603  eV     1   --> A_1  D_1  S_1  
     e(  2 -  2) =    -48.55779  eV     1   --> B_2  D_4  S_4  
     e(  3 -  3) =    -48.55678  eV     1   --> A_1  D_1  S_1  
     e(  4 -  4) =    -48.55279  eV     1   --> B_1  D_3  S_3  
     e(  5 -  5) =    -48.55257  eV     1   --> A_2  D_2  S_2  
     e(  6 -  6) =    -48.51721  eV     1   --> B_2  D_4  S_4  
     e(  7 -  7) =    -48.51648  eV     1   --> B_1  D_3  S_3  
     e(  8 -  8) =    -48.51615  eV     1   --> A_1  D_1  S_1  
     e(  9 -  9) =    -48.51522  eV     1   --> A_2  D_2  S_2  
     e( 10 - 10) =    -48.49709  eV     1   --> A_1  D_1  S_1  
     e( 11 - 11) =    -48.49466  eV     1   --> B_2  D_4  S_4  
     e( 12 - 12) =    -36.13643  eV     1   --> A_1  D_1  S_1  
     e( 13 - 13) =    -36.00438  eV     1   --> B_2  D_4  S_4  
     e( 14 - 14) =    -35.91496  eV     1   --> B_1  D_3  S_3  
     e( 15 - 15) =    -13.65148  eV     1   --> A_1  D_1  S_1  
     e( 16 - 16) =    -13.49037  eV     1   --> B_2  D_4  S_4  
     e( 17 - 17) =     -6.96806  eV     1   --> A_1  D_1  S_1  
     e( 18 - 18) =     -6.06367  eV     1   --> B_2  D_4  S_4  
     e( 19 - 19) =     -5.06672  eV     1   --> A_1  D_1  S_1  
     e( 20 - 20) =     -3.94226  eV     1   --> A_2  D_2  S_2  
     e( 21 - 21) =     -3.11062  eV     1   --> B_2  D_4  S_4  
     e( 22 - 22) =     -1.91812  eV     1   --> A_1  D_1  S_1  
     e( 23 - 23) =     -1.74619  eV     1   --> B_1  D_3  S_3  
     e( 24 - 24) =      0.87056  eV     1   --> B_1  D_3  S_3  
     e( 25 - 25) =      1.25054  eV     1   --> A_1  D_1  S_1  
     e( 26 - 26) =      2.45203  eV     1   --> B_2  D_4  S_4  
     e( 27 - 27) =      3.01563  eV     1   --> A_2  D_2  S_2  
     e( 28 - 28) =      4.40276  eV     1   --> A_1  D_1  S_1  
     e( 29 - 29) =      6.21036  eV     1   --> B_2  D_4  S_4  
     e( 30 - 30) =      6.34439  eV     1   --> A_1  D_1  S_1  
     e( 31 - 31) =      7.06397  eV     1   --> B_2  D_4  S_4  
     e( 32 - 32) =      7.85807  eV     1   --> A_1  D_1  S_1  

 **************************************************************************

 **************************************************************************

                    xk=(   0.48000,   0.27713,   0.00000  )

     Band symmetry, C_2v (mm2)  point group:

     e(  1 -  1) =    -61.83597  eV     1   --> A_1  D_1  S_1  
     e(  2 -  2) =    -48.55779  eV     1   --> B_2  D_4  S_4  
     e(  3 -  3) =    -48.55678  eV     1   --> A_1  D_1  S_1  
     e(  4 -  4) =    -48.55278  eV     1   --> B_1  D_3  S_3  
     e(  5 -  5) =    -48.55256  eV     1   --> A_2  D_2  S_2  
     e(  6 -  6) =    -48.51722  eV     1   --> B_2  D_4  S_4  
     e(  7 -  7) =    -48.51648  eV     1   --> B_1  D_3  S_3  
     e(  8 -  8) =    -48.51615  eV     1   --> A_1  D_1  S_1  
     e(  9 -  9) =    -48.51522  eV     1   --> A_2  D_2  S_2  
     e( 10 - 10) =    -48.49708  eV     1   --> A_1  D_1  S_1  
     e( 11 - 11) =    -48.49466  eV     1   --> B_2  D_4  S_4  
     e( 12 - 12) =    -36.13705  eV     1   --> A_1  D_1  S_1  
     e( 13 - 13) =    -36.00424  eV     1   --> B_2  D_4  S_4  
     e( 14 - 14) =    -35.91511  eV     1   --> B_1  D_3  S_3  
     e( 15 - 15) =    -13.64566  eV     1   --> A_1  D_1  S_1  
     e( 16 - 16) =    -13.48750  eV     1   --> B_2  D_4  S_4  
     e( 17 - 17) =     -6.97612  eV     1   --> A_1  D_1  S_1  
     e( 18 - 18) =     -6.07064  eV     1   --> B_2  D_4  S_4  
     e( 19 - 19) =     -5.06760  eV     1   --> A_1  D_1  S_1  
     e( 20 - 20) =     -3.94498  eV     1   --> A_2  D_2  S_2  
     e( 21 - 21) =     -3.11237  eV     1   --> B_2  D_4  S_4  
     e( 22 - 22) =     -1.91211  eV     1   --> A_1  D_1  S_1  
     e( 23 - 23) =     -1.74320  eV     1   --> B_1  D_3  S_3  
     e( 24 - 24) =      0.87080  eV     1   --> B_1  D_3  S_3  
     e( 25 - 25) =      1.25697  eV     1   --> A_1  D_1  S_1  
     e( 26 - 26) =      2.45651  eV     1   --> B_2  D_4  S_4  
     e( 27 - 27) =      3.01666  eV     1   --> A_2  D_2  S_2  
     e( 28 - 28) =      4.38320  eV     1   --> A_1  D_1  S_1  
     e( 29 - 29) =      6.21464  eV     1   --> B_2  D_4  S_4  
     e( 30 - 30) =      6.35521  eV     1   --> A_1  D_1  S_1  
     e( 31 - 31) =      7.06540  eV     1   --> B_2  D_4  S_4  
     e( 32 - 32) =      7.87249  eV     1   --> A_1  D_1  S_1  

 **************************************************************************

 **************************************************************************

                    xk=(   0.48500,   0.28001,   0.00000  )

     Band symmetry, C_2v (mm2)  point group:

     e(  1 -  1) =    -61.83592  eV     1   --> A_1  D_1  S_1  
     e(  2 -  2) =    -48.55779  eV     1   --> B_2  D_4  S_4  
     e(  3 -  3) =    -48.55678  eV     1   --> A_1  D_1  S_1  
     e(  4 -  4) =    -48.55277  eV     1   --> B_1  D_3  S_3  
     e(  5 -  5) =    -48.55255  eV     1   --> A_2  D_2  S_2  
     e(  6 -  6) =    -48.51722  eV     1   --> B_2  D_4  S_4  
     e(  7 -  7) =    -48.51648  eV     1   --> B_1  D_3  S_3  
     e(  8 -  8) =    -48.51615  eV     1   --> A_1  D_1  S_1  
     e(  9 -  9) =    -48.51522  eV     1   --> A_2  D_2  S_2  
     e( 10 - 10) =    -48.49708  eV     1   --> A_1  D_1  S_1  
     e( 11 - 11) =    -48.49465  eV     1   --> B_2  D_4  S_4  
     e( 12 - 12) =    -36.13754  eV     1   --> A_1  D_1  S_1  
     e( 13 - 13) =    -36.00412  eV     1   --> B_2  D_4  S_4  
     e( 14 - 14) =    -35.91522  eV     1   --> B_1  D_3  S_3  
     e( 15 - 15) =    -13.64112  eV     1   --> A_1  D_1  S_1  
     e( 16 - 16) =    -13.48525  eV     1   --> B_2  D_4  S_4  
     e( 17 - 17) =     -6.98241  eV     1   --> A_1  D_1  S_1  
     e( 18 - 18) =     -6.07608  eV     1   --> B_2  D_4  S_4  
     e( 19 - 19) =     -5.06830  eV     1   --> A_1  D_1  S_1  
     e( 20 - 20) =     -3.94710  eV     1   --> A_2  D_2  S_2  
     e( 21 - 21) =     -3.11372  eV     1   --> B_2  D_4  S_4  
     e( 22 - 22) =     -1.90738  eV     1   --> A_1  D_1  S_1  
     e( 23 - 23) =     -1.74089  eV     1   --> B_1  D_3  S_3  
     e( 24 - 24) =      0.87101  eV     1   --> B_1  D_3  S_3  
     e( 25 - 25) =      1.26204  eV     1   --> A_1  D_1  S_1  
     e( 26 - 26) =      2.46000  eV     1   --> B_2  D_4  S_4  
     e( 27 - 27) =      3.01746  eV     1   --> A_2  D_2  S_2  
     e( 28 - 28) =      4.36789  eV     1   --> A_1  D_1  S_1  
     e( 29 - 29) =      6.21809  eV     1   --> B_2  D_4  S_4  
     e( 30 - 30) =      6.36374  eV     1   --> A_1  D_1  S_1  
     e( 31 - 31) =      7.06622  eV     1   --> B_2  D_4  S_4  
     e( 32 - 32) =      7.88273  eV     1   --> A_1  D_1  S_1  

 **************************************************************************

 **************************************************************************

                    xk=(   0.49000,   0.28290,   0.00000  )

     Band symmetry, C_2v (mm2)  point group:

     e(  1 -  1) =    -61.83589  eV     1   --> A_1  D_1  S_1  
     e(  2 -  2) =    -48.55779  eV     1   --> B_2  D_4  S_4  
     e(  3 -  3) =    -48.55678  eV     1   --> A_1  D_1  S_1  
     e(  4 -  4) =    -48.55276  eV     1   --> B_1  D_3  S_3  
     e(  5 -  5) =    -48.55255  eV     1   --> A_2  D_2  S_2  
     e(  6 -  6) =    -48.51722  eV     1   --> B_2  D_4  S_4  
     e(  7 -  7) =    -48.51648  eV     1   --> B_1  D_3  S_3  
     e(  8 -  8) =    -48.51615  eV     1   --> A_1  D_1  S_1  
     e(  9 -  9) =    -48.51523  eV     1   --> A_2  D_2  S_2  
     e( 10 - 10) =    -48.49707  eV     1   --> A_1  D_1  S_1  
     e( 11 - 11) =    -48.49465  eV     1   --> B_2  D_4  S_4  
     e( 12 - 12) =    -36.13789  eV     1   --> A_1  D_1  S_1  
     e( 13 - 13) =    -36.00404  eV     1   --> B_2  D_4  S_4  
     e( 14 - 14) =    -35.91530  eV     1   --> B_1  D_3  S_3  
     e( 15 - 15) =    -13.63786  eV     1   --> A_1  D_1  S_1  
     e( 16 - 16) =    -13.48365  eV     1   --> B_2  D_4  S_4  
     e( 17 - 17) =     -6.98692  eV     1   --> A_1  D_1  S_1  
     e( 18 - 18) =     -6.07997  eV     1   --> B_2  D_4  S_4  
     e( 19 - 19) =     -5.06880  eV     1   --> A_1  D_1  S_1  
     e( 20 - 20) =     -3.94861  eV     1   --> A_2  D_2  S_2  
     e( 21 - 21) =     -3.11469  eV     1   --> B_2  D_4  S_4  
     e( 22 - 22) =     -1.90397  eV     1   --> A_1  D_1  S_1  
     e( 23 - 23) =     -1.73923  eV     1   --> B_1  D_3  S_3  
     e( 24 - 24) =      0.87116  eV     1   --> B_1  D_3  S_3  
     e( 25 - 25) =      1.26569  eV     1   --> A_1  D_1  S_1  
     e( 26 - 26) =      2.46248  eV     1   --> B_2  D_4  S_4  
     e( 27 - 27) =      3.01804  eV     1   --> A_2  D_2  S_2  
     e( 28 - 28) =      4.35689  eV     1   --> A_1  D_1  S_1  
     e( 29 - 29) =      6.22061  eV     1   --> B_2  D_4  S_4  
     e( 30 - 30) =      6.36990  eV     1   --> A_1  D_1  S_1  
     e( 31 - 31) =      7.06664  eV     1   --> B_2  D_4  S_4  
     e( 32 - 32) =      7.88953  eV     1   --> A_1  D_1  S_1  

 **************************************************************************

 **************************************************************************

                    xk=(   0.49500,   0.28579,   0.00000  )

     Band symmetry, C_2v (mm2)  point group:

     e(  1 -  1) =    -61.83587  eV     1   --> A_1  D_1  S_1  
     e(  2 -  2) =    -48.55779  eV     1   --> B_2  D_4  S_4  
     e(  3 -  3) =    -48.55678  eV     1   --> A_1  D_1  S_1  
     e(  4 -  4) =    -48.55276  eV     1   --> B_1  D_3  S_3  
     e(  5 -  5) =    -48.55254  eV     1   --> A_2  D_2  S_2  
     e(  6 -  6) =    -48.51722  eV     1   --> B_2  D_4  S_4  
     e(  7 -  7) =    -48.51648  eV     1   --> B_1  D_3  S_3  
     e(  8 -  8) =    -48.51615  eV     1   --> A_1  D_1  S_1  
     e(  9 -  9) =    -48.51523  eV     1   --> A_2  D_2  S_2  
     e( 10 - 10) =    -48.49707  eV     1   --> A_1  D_1  S_1  
     e( 11 - 11) =    -48.49465  eV     1   --> B_2  D_4  S_4  
     e( 12 - 12) =    -36.13809  eV     1   --> A_1  D_1  S_1  
     e( 13 - 13) =    -36.00399  eV     1   --> B_2  D_4  S_4  
     e( 14 - 14) =    -35.91535  eV     1   --> B_1  D_3  S_3  
     e( 15 - 15) =    -13.63591  eV     1   --> A_1  D_1  S_1  
     e( 16 - 16) =    -13.48268  eV     1   --> B_2  D_4  S_4  
     e( 17 - 17) =     -6.98963  eV     1   --> A_1  D_1  S_1  
     e( 18 - 18) =     -6.08230  eV     1   --> B_2  D_4  S_4  
     e( 19 - 19) =     -5.06911  eV     1   --> A_1  D_1  S_1  
     e( 20 - 20) =     -3.94952  eV     1   --> A_2  D_2  S_2  
     e( 21 - 21) =     -3.11527  eV     1   --> B_2  D_4  S_4  
     e( 22 - 22) =     -1.90191  eV     1   --> A_1  D_1  S_1  
     e( 23 - 23) =     -1.73824  eV     1   --> B_1  D_3  S_3  
     e( 24 - 24) =      0.87125  eV     1   --> B_1  D_3  S_3  
     e( 25 - 25) =      1.26790  eV     1   --> A_1  D_1  S_1  
     e( 26 - 26) =      2.46397  eV     1   --> B_2  D_4  S_4  
     e( 27 - 27) =      3.01838  eV     1   --> A_2  D_2  S_2  
     e( 28 - 28) =      4.35026  eV     1   --> A_1  D_1  S_1  
     e( 29 - 29) =      6.22216  eV     1   --> B_2  D_4  S_4  
     e( 30 - 30) =      6.37361  eV     1   --> A_1  D_1  S_1  
     e( 31 - 31) =      7.06682  eV     1   --> B_2  D_4  S_4  
     e( 32 - 32) =      7.89341  eV     1   --> A_1  D_1  S_1  

 **************************************************************************

 **************************************************************************

                    xk=(   0.50000,   0.28868,   0.00000  )

     Band symmetry, C_2v (mm2)  point group:

     e(  1 -  1) =    -61.83586  eV     1   --> A_1  D_1  S_1  
     e(  2 -  2) =    -48.55779  eV     1   --> B_2  D_4  S_4  
     e(  3 -  3) =    -48.55678  eV     1   --> A_1  D_1  S_1  
     e(  4 -  4) =    -48.55276  eV     1   --> B_1  D_3  S_3  
     e(  5 -  5) =    -48.55255  eV     1   --> A_2  D_2  S_2  
     e(  6 -  6) =    -48.51722  eV     1   --> B_2  D_4  S_4  
     e(  7 -  7) =    -48.51648  eV     1   --> B_1  D_3  S_3  
     e(  8 -  8) =    -48.51615  eV     1   --> A_1  D_1  S_1  
     e(  9 -  9) =    -48.51523  eV     1   --> A_2  D_2  S_2  
     e( 10 - 10) =    -48.49707  eV     1   --> A_1  D_1  S_1  
     e( 11 - 11) =    -48.49465  eV     1   --> B_2  D_4  S_4  
     e( 12 - 12) =    -36.13816  eV     1   --> A_1  D_1  S_1  
     e( 13 - 13) =    -36.00398  eV     1   --> B_2  D_4  S_4  
     e( 14 - 14) =    -35.91537  eV     1   --> B_1  D_3  S_3  
     e( 15 - 15) =    -13.63525  eV     1   --> A_1  D_1  S_1  
     e( 16 - 16) =    -13.48236  eV     1   --> B_2  D_4  S_4  
     e( 17 - 17) =     -6.99053  eV     1   --> A_1  D_1  S_1  
     e( 18 - 18) =     -6.08308  eV     1   --> B_2  D_4  S_4  
     e( 19 - 19) =     -5.06921  eV     1   --> A_1  D_1  S_1  
     e( 20 - 20) =     -3.94982  eV     1   --> A_2  D_2  S_2  
     e( 21 - 21) =     -3.11546  eV     1   --> B_2  D_4  S_4  
     e( 22 - 22) =     -1.90122  eV     1   --> A_1  D_1  S_1  
     e( 23 - 23) =     -1.73791  eV     1   --> B_1  D_3  S_3  
     e( 24 - 24) =      0.87128  eV     1   --> B_1  D_3  S_3  
     e( 25 - 25) =      1.26864  eV     1   --> A_1  D_1  S_1  
     e( 26 - 26) =      2.46447  eV     1   --> B_2  D_4  S_4  
     e( 27 - 27) =      3.01849  eV     1   --> A_2  D_2  S_2  
     e( 28 - 28) =      4.34805  eV     1   --> A_1  D_1  S_1  
     e( 29 - 29) =      6.22268  eV     1   --> B_2  D_4  S_4  
     e( 30 - 30) =      6.37486  eV     1   --> A_1  D_1  S_1  
     e( 31 - 31) =      7.06687  eV     1   --> B_2  D_4  S_4  
     e( 32 - 32) =      7.89467  eV     1   --> A_1  D_1  S_1  

 **************************************************************************
 
     BANDS        :     53.02s CPU     56.02s WALL

 
   This run was terminated on:  22:27: 5  13Jun2022            

=------------------------------------------------------------------------------=
   JOB DONE.
=------------------------------------------------------------------------------=
