
     Program PWSCF v.6.6 starts on 13Jun2022 at 22:27:25 

     This program is part of the open-source Quantum ESPRESSO suite
     for quantum simulation of materials; please cite
         "P. Giannozzi et al., J. Phys.:Condens. Matter 21 395502 (2009);
         "P. Giannozzi et al., J. Phys.:Condens. Matter 29 465901 (2017);
          URL http://www.quantum-espresso.org", 
     in publications or presentations arising from this work. More details at
     http://www.quantum-espresso.org/quote

     Parallel version (MPI), running on    40 processors

     MPI processes distributed on     1 nodes
     K-points division:     npool     =       4
     R & G space division:  proc/nbgrp/npool/nimage =      10
     Fft bands division:     nmany     =       1
     Waiting for input...
     Reading input from standard input
Warning: card &IONS ignored
Warning: card / ignored
Warning: card &CELL ignored
Warning: card PRESS_CONV_THR=0.1 ignored
Warning: card CELL_DOFREE='2DXY' ignored
Warning: card / ignored

     Current dimensions of program PWSCF are:
     Max number of different atomic species (ntypx) = 10
     Max number of k-points (npk) =  40000
     Max angular momentum in pseudopotentials (lmaxx) =  3

     Atomic positions and unit cell read from directory:
     ./mose2.save/
     Atomic positions from file used, from input discarded
 
     file Mo.pbesol-spn-kjpaw_psl.1.0.0.UPF: wavefunction(s)  4S 4D renormalized
     file Se.pbesol-dn-kjpaw_psl.1.0.0.UPF: wavefunction(s)  4S 4P 3D renormalized

     Subspace diagonalization in iterative solution of the eigenvalue problem:
     one sub-group per band group will be used
     scalapack distributed-memory algorithm (size of sub-group:  3*  3 procs)

 
     Parallelization info
     --------------------
     sticks:   dense  smooth     PW     G-vecs:    dense   smooth      PW
     Min         106     106     31                22894    22894    3487
     Max         107     107     32                22929    22929    3509
     Sum        1069    1069    313               229233   229233   34911
 


     bravais-lattice index     =            4
     lattice parameter (alat)  =       6.1734  a.u.
     unit-cell volume          =    1646.5987 (a.u.)^3
     number of atoms/cell      =            3
     number of atomic types    =            2
     number of electrons       =        46.00
     number of Kohn-Sham states=           32
     kinetic-energy cutoff     =     102.0000  Ry
     charge density cutoff     =     408.0000  Ry
     Exchange-correlation= SLA PW PSX PSC
                           (   1   4  10   8   0   0   0)

     celldm(1)=   6.173437  celldm(2)=   0.000000  celldm(3)=   8.081203
     celldm(4)=   0.000000  celldm(5)=   0.000000  celldm(6)=   0.000000

     crystal axes: (cart. coord. in units of alat)
               a(1) = (   1.000000   0.000000   0.000000 )  
               a(2) = (  -0.500000   0.866025   0.000000 )  
               a(3) = (   0.000000   0.000000   8.081203 )  

     reciprocal axes: (cart. coord. in units 2 pi/alat)
               b(1) = (  1.000000  0.577350  0.000000 )  
               b(2) = (  0.000000  1.154701  0.000000 )  
               b(3) = (  0.000000  0.000000  0.123744 )  


     PseudoPot. # 1 for Mo read from file:
     /scratch1/fanchem/MoSe2/pp/Mo.pbesol-spn-kjpaw_psl.1.0.0.UPF
     MD5 check sum: 2f69e612011640a3284f00f973390535
     Pseudo is Projector augmented-wave + core cor, Zval = 14.0
     Generated using "atomic" code by A. Dal Corso v.6.3
     Shape of augmentation charge: PSQ
     Using radial grid of 1229 points,  6 beta functions with: 
                l(1) =   0
                l(2) =   0
                l(3) =   1
                l(4) =   1
                l(5) =   2
                l(6) =   2
     Q(r) pseudized with 0 coefficients 


     PseudoPot. # 2 for Se read from file:
     /scratch1/fanchem/MoSe2/pp/Se.pbesol-dn-kjpaw_psl.1.0.0.UPF
     MD5 check sum: 96421e4d850e5e17b279567c6a17bf72
     Pseudo is Projector augmented-wave + core cor, Zval = 16.0
     Generated using "atomic" code by A. Dal Corso v.6.3
     Shape of augmentation charge: PSQ
     Using radial grid of 1211 points,  6 beta functions with: 
                l(1) =   0
                l(2) =   0
                l(3) =   1
                l(4) =   1
                l(5) =   2
                l(6) =   2
     Q(r) pseudized with 0 coefficients 


     atomic species   valence    mass     pseudopotential
        Mo            14.00    95.95000     Mo( 1.00)
        Se            16.00    78.96000     Se( 1.00)

     12 Sym. Ops. (no inversion) found


                                    s                        frac. trans.

      isym =  1     identity                                     

 cryst.   s( 1) = (     1          0          0      )
                  (     0          1          0      )
                  (     0          0          1      )

 cart.    s( 1) = (  1.0000000  0.0000000  0.0000000 )
                  (  0.0000000  1.0000000  0.0000000 )
                  (  0.0000000  0.0000000  1.0000000 )


      isym =  2     180 deg rotation - cart. axis [0,1,0]        

 cryst.   s( 2) = (    -1          0          0      )
                  (     1          1          0      )
                  (     0          0         -1      )

 cart.    s( 2) = ( -1.0000000  0.0000000  0.0000000 )
                  (  0.0000000  1.0000000  0.0000000 )
                  (  0.0000000  0.0000000 -1.0000000 )


      isym =  3     120 deg rotation - cryst. axis [0,0,1]       

 cryst.   s( 3) = (     0          1          0      )
                  (    -1         -1          0      )
                  (     0          0          1      )

 cart.    s( 3) = ( -0.5000000 -0.8660254  0.0000000 )
                  (  0.8660254 -0.5000000  0.0000000 )
                  (  0.0000000  0.0000000  1.0000000 )


      isym =  4     120 deg rotation - cryst. axis [0,0,-1]      

 cryst.   s( 4) = (    -1         -1          0      )
                  (     1          0          0      )
                  (     0          0          1      )

 cart.    s( 4) = ( -0.5000000  0.8660254  0.0000000 )
                  ( -0.8660254 -0.5000000  0.0000000 )
                  (  0.0000000  0.0000000  1.0000000 )


      isym =  5     180 deg rotation - cryst. axis [1,-1,0]      

 cryst.   s( 5) = (     0         -1          0      )
                  (    -1          0          0      )
                  (     0          0         -1      )

 cart.    s( 5) = (  0.5000000 -0.8660254  0.0000000 )
                  ( -0.8660254 -0.5000000  0.0000000 )
                  (  0.0000000  0.0000000 -1.0000000 )


      isym =  6     180 deg rotation - cryst. axis [2,1,0]       

 cryst.   s( 6) = (     1          1          0      )
                  (     0         -1          0      )
                  (     0          0         -1      )

 cart.    s( 6) = (  0.5000000  0.8660254  0.0000000 )
                  (  0.8660254 -0.5000000  0.0000000 )
                  (  0.0000000  0.0000000 -1.0000000 )


      isym =  7     inv. 180 deg rotation - cart. axis [0,0,1]   

 cryst.   s( 7) = (     1          0          0      )
                  (     0          1          0      )
                  (     0          0         -1      )

 cart.    s( 7) = (  1.0000000  0.0000000  0.0000000 )
                  (  0.0000000  1.0000000  0.0000000 )
                  (  0.0000000  0.0000000 -1.0000000 )


      isym =  8     inv. 180 deg rotation - cart. axis [1,0,0]   

 cryst.   s( 8) = (    -1          0          0      )
                  (     1          1          0      )
                  (     0          0          1      )

 cart.    s( 8) = ( -1.0000000  0.0000000  0.0000000 )
                  (  0.0000000  1.0000000  0.0000000 )
                  (  0.0000000  0.0000000  1.0000000 )


      isym =  9     inv.  60 deg rotation - cryst. axis [0,0,1]  

 cryst.   s( 9) = (    -1         -1          0      )
                  (     1          0          0      )
                  (     0          0         -1      )

 cart.    s( 9) = ( -0.5000000  0.8660254  0.0000000 )
                  ( -0.8660254 -0.5000000  0.0000000 )
                  (  0.0000000  0.0000000 -1.0000000 )


      isym = 10     inv.  60 deg rotation - cryst. axis [0,0,-1] 

 cryst.   s(10) = (     0          1          0      )
                  (    -1         -1          0      )
                  (     0          0         -1      )

 cart.    s(10) = ( -0.5000000 -0.8660254  0.0000000 )
                  (  0.8660254 -0.5000000  0.0000000 )
                  (  0.0000000  0.0000000 -1.0000000 )


      isym = 11     inv. 180 deg rotation - cryst. axis [0,1,0]  

 cryst.   s(11) = (     1          1          0      )
                  (     0         -1          0      )
                  (     0          0          1      )

 cart.    s(11) = (  0.5000000  0.8660254  0.0000000 )
                  (  0.8660254 -0.5000000  0.0000000 )
                  (  0.0000000  0.0000000  1.0000000 )


      isym = 12     inv. 180 deg rotation - cryst. axis [1,1,0]  

 cryst.   s(12) = (     0         -1          0      )
                  (    -1          0          0      )
                  (     0          0          1      )

 cart.    s(12) = (  0.5000000 -0.8660254  0.0000000 )
                  ( -0.8660254 -0.5000000  0.0000000 )
                  (  0.0000000  0.0000000  1.0000000 )


     point group D_3h (-62m)
     there are  6 classes
     the character table:

       E     2C3   3C2   s_h   2S3   3s_v 
A'_1   1.00  1.00  1.00  1.00  1.00  1.00
A'_2   1.00  1.00 -1.00  1.00  1.00 -1.00
E'     2.00 -1.00  0.00  2.00 -1.00  0.00
A''1   1.00  1.00  1.00 -1.00 -1.00 -1.00
A''2   1.00  1.00 -1.00 -1.00 -1.00  1.00
E''    2.00 -1.00  0.00 -2.00  1.00  0.00

     the symmetry operations in each class and the name of the first element:

     E        1
          identity                                               
     2C3      3    4
          120 deg rotation - cryst. axis [0,0,1]                 
     3C2      2    6    5
          180 deg rotation - cart. axis [0,1,0]                  
     s_h      7
          inv. 180 deg rotation - cart. axis [0,0,1]             
     2S3      9   10
          inv.  60 deg rotation - cryst. axis [0,0,1]            
     3s_v     8   11   12
          inv. 180 deg rotation - cart. axis [1,0,0]             

   Cartesian axes

     site n.     atom                  positions (alat units)
         1           Mo  tau(   1) = (  -0.0000000   0.5773503   4.0406015  )
         2           Se  tau(   2) = (   0.5000000   0.2886751   3.5309875  )
         3           Se  tau(   3) = (   0.5000000   0.2886751   4.5502155  )

   Crystallographic axes

     site n.     atom                  positions (cryst. coord.)
         1           Mo  tau(   1) = (  0.3333333  0.6666667  0.5000000  )
         2           Se  tau(   2) = (  0.6666667  0.3333333  0.4369383  )
         3           Se  tau(   3) = (  0.6666667  0.3333333  0.5630617  )

     number of k points=   201
                       cart. coord. in units 2pi/alat
        k(    1) = (   0.0000000   0.0000000   0.0000000), wk =   0.0099502
        k(    2) = (   0.0066667   0.0000000   0.0000000), wk =   0.0099502
        k(    3) = (   0.0133333   0.0000000   0.0000000), wk =   0.0099502
        k(    4) = (   0.0200000   0.0000000   0.0000000), wk =   0.0099502
        k(    5) = (   0.0266667   0.0000000   0.0000000), wk =   0.0099502
        k(    6) = (   0.0333333   0.0000000   0.0000000), wk =   0.0099502
        k(    7) = (   0.0400000   0.0000000   0.0000000), wk =   0.0099502
        k(    8) = (   0.0466667   0.0000000   0.0000000), wk =   0.0099502
        k(    9) = (   0.0533333   0.0000000   0.0000000), wk =   0.0099502
        k(   10) = (   0.0600000   0.0000000   0.0000000), wk =   0.0099502
        k(   11) = (   0.0666667   0.0000000   0.0000000), wk =   0.0099502
        k(   12) = (   0.0733333   0.0000000   0.0000000), wk =   0.0099502
        k(   13) = (   0.0800000   0.0000000   0.0000000), wk =   0.0099502
        k(   14) = (   0.0866667   0.0000000   0.0000000), wk =   0.0099502
        k(   15) = (   0.0933333   0.0000000   0.0000000), wk =   0.0099502
        k(   16) = (   0.1000000   0.0000000   0.0000000), wk =   0.0099502
        k(   17) = (   0.1066667   0.0000000   0.0000000), wk =   0.0099502
        k(   18) = (   0.1133333   0.0000000   0.0000000), wk =   0.0099502
        k(   19) = (   0.1200000   0.0000000   0.0000000), wk =   0.0099502
        k(   20) = (   0.1266667   0.0000000   0.0000000), wk =   0.0099502
        k(   21) = (   0.1333333   0.0000000   0.0000000), wk =   0.0099502
        k(   22) = (   0.1400000   0.0000000   0.0000000), wk =   0.0099502
        k(   23) = (   0.1466667   0.0000000   0.0000000), wk =   0.0099502
        k(   24) = (   0.1533333   0.0000000   0.0000000), wk =   0.0099502
        k(   25) = (   0.1600000   0.0000000   0.0000000), wk =   0.0099502
        k(   26) = (   0.1666667   0.0000000   0.0000000), wk =   0.0099502
        k(   27) = (   0.1733333   0.0000000   0.0000000), wk =   0.0099502
        k(   28) = (   0.1800000   0.0000000   0.0000000), wk =   0.0099502
        k(   29) = (   0.1866667   0.0000000   0.0000000), wk =   0.0099502
        k(   30) = (   0.1933333   0.0000000   0.0000000), wk =   0.0099502
        k(   31) = (   0.2000000   0.0000000   0.0000000), wk =   0.0099502
        k(   32) = (   0.2066667   0.0000000   0.0000000), wk =   0.0099502
        k(   33) = (   0.2133333   0.0000000   0.0000000), wk =   0.0099502
        k(   34) = (   0.2200000   0.0000000   0.0000000), wk =   0.0099502
        k(   35) = (   0.2266667   0.0000000   0.0000000), wk =   0.0099502
        k(   36) = (   0.2333333   0.0000000   0.0000000), wk =   0.0099502
        k(   37) = (   0.2400000   0.0000000   0.0000000), wk =   0.0099502
        k(   38) = (   0.2466667   0.0000000   0.0000000), wk =   0.0099502
        k(   39) = (   0.2533333   0.0000000   0.0000000), wk =   0.0099502
        k(   40) = (   0.2600000   0.0000000   0.0000000), wk =   0.0099502
        k(   41) = (   0.2666667   0.0000000   0.0000000), wk =   0.0099502
        k(   42) = (   0.2733333   0.0000000   0.0000000), wk =   0.0099502
        k(   43) = (   0.2800000   0.0000000   0.0000000), wk =   0.0099502
        k(   44) = (   0.2866667   0.0000000   0.0000000), wk =   0.0099502
        k(   45) = (   0.2933333   0.0000000   0.0000000), wk =   0.0099502
        k(   46) = (   0.3000000   0.0000000   0.0000000), wk =   0.0099502
        k(   47) = (   0.3066667   0.0000000   0.0000000), wk =   0.0099502
        k(   48) = (   0.3133333   0.0000000   0.0000000), wk =   0.0099502
        k(   49) = (   0.3200000   0.0000000   0.0000000), wk =   0.0099502
        k(   50) = (   0.3266667   0.0000000   0.0000000), wk =   0.0099502
        k(   51) = (   0.3333333   0.0000000   0.0000000), wk =   0.0099502
        k(   52) = (   0.3400000   0.0000000   0.0000000), wk =   0.0099502
        k(   53) = (   0.3466667   0.0000000   0.0000000), wk =   0.0099502
        k(   54) = (   0.3533333   0.0000000   0.0000000), wk =   0.0099502
        k(   55) = (   0.3600000   0.0000000   0.0000000), wk =   0.0099502
        k(   56) = (   0.3666667   0.0000000   0.0000000), wk =   0.0099502
        k(   57) = (   0.3733333   0.0000000   0.0000000), wk =   0.0099502
        k(   58) = (   0.3800000   0.0000000   0.0000000), wk =   0.0099502
        k(   59) = (   0.3866667   0.0000000   0.0000000), wk =   0.0099502
        k(   60) = (   0.3933333   0.0000000   0.0000000), wk =   0.0099502
        k(   61) = (   0.4000000   0.0000000   0.0000000), wk =   0.0099502
        k(   62) = (   0.4066667   0.0000000   0.0000000), wk =   0.0099502
        k(   63) = (   0.4133333   0.0000000   0.0000000), wk =   0.0099502
        k(   64) = (   0.4200000   0.0000000   0.0000000), wk =   0.0099502
        k(   65) = (   0.4266667   0.0000000   0.0000000), wk =   0.0099502
        k(   66) = (   0.4333333   0.0000000   0.0000000), wk =   0.0099502
        k(   67) = (   0.4400000   0.0000000   0.0000000), wk =   0.0099502
        k(   68) = (   0.4466667   0.0000000   0.0000000), wk =   0.0099502
        k(   69) = (   0.4533333   0.0000000   0.0000000), wk =   0.0099502
        k(   70) = (   0.4600000   0.0000000   0.0000000), wk =   0.0099502
        k(   71) = (   0.4666667   0.0000000   0.0000000), wk =   0.0099502
        k(   72) = (   0.4733333   0.0000000   0.0000000), wk =   0.0099502
        k(   73) = (   0.4800000   0.0000000   0.0000000), wk =   0.0099502
        k(   74) = (   0.4866667   0.0000000   0.0000000), wk =   0.0099502
        k(   75) = (   0.4933333   0.0000000   0.0000000), wk =   0.0099502
        k(   76) = (   0.5000000   0.0000000   0.0000000), wk =   0.0099502
        k(   77) = (   0.5066667   0.0000000   0.0000000), wk =   0.0099502
        k(   78) = (   0.5133333   0.0000000   0.0000000), wk =   0.0099502
        k(   79) = (   0.5200000   0.0000000   0.0000000), wk =   0.0099502
        k(   80) = (   0.5266667   0.0000000   0.0000000), wk =   0.0099502
        k(   81) = (   0.5333333   0.0000000   0.0000000), wk =   0.0099502
        k(   82) = (   0.5400000   0.0000000   0.0000000), wk =   0.0099502
        k(   83) = (   0.5466667   0.0000000   0.0000000), wk =   0.0099502
        k(   84) = (   0.5533333   0.0000000   0.0000000), wk =   0.0099502
        k(   85) = (   0.5600000   0.0000000   0.0000000), wk =   0.0099502
        k(   86) = (   0.5666667   0.0000000   0.0000000), wk =   0.0099502
        k(   87) = (   0.5733333   0.0000000   0.0000000), wk =   0.0099502
        k(   88) = (   0.5800000   0.0000000   0.0000000), wk =   0.0099502
        k(   89) = (   0.5866667   0.0000000   0.0000000), wk =   0.0099502
        k(   90) = (   0.5933333   0.0000000   0.0000000), wk =   0.0099502
        k(   91) = (   0.6000000   0.0000000   0.0000000), wk =   0.0099502
        k(   92) = (   0.6066667   0.0000000   0.0000000), wk =   0.0099502
        k(   93) = (   0.6133333   0.0000000   0.0000000), wk =   0.0099502
        k(   94) = (   0.6200000   0.0000000   0.0000000), wk =   0.0099502
        k(   95) = (   0.6266667   0.0000000   0.0000000), wk =   0.0099502
        k(   96) = (   0.6333333   0.0000000   0.0000000), wk =   0.0099502
        k(   97) = (   0.6400000   0.0000000   0.0000000), wk =   0.0099502
        k(   98) = (   0.6466667   0.0000000   0.0000000), wk =   0.0099502
        k(   99) = (   0.6533333   0.0000000   0.0000000), wk =   0.0099502
        k(  100) = (   0.6600000   0.0000000   0.0000000), wk =   0.0099502
        k(  101) = (   0.6666667   0.0000000   0.0000000), wk =   0.0099502
        k(  102) = (   0.6650000   0.0028868   0.0000000), wk =   0.0099502
        k(  103) = (   0.6633333   0.0057735   0.0000000), wk =   0.0099502
        k(  104) = (   0.6616667   0.0086603   0.0000000), wk =   0.0099502
        k(  105) = (   0.6600000   0.0115470   0.0000000), wk =   0.0099502
        k(  106) = (   0.6583333   0.0144338   0.0000000), wk =   0.0099502
        k(  107) = (   0.6566667   0.0173205   0.0000000), wk =   0.0099502
        k(  108) = (   0.6550000   0.0202073   0.0000000), wk =   0.0099502
        k(  109) = (   0.6533333   0.0230940   0.0000000), wk =   0.0099502
        k(  110) = (   0.6516667   0.0259808   0.0000000), wk =   0.0099502
        k(  111) = (   0.6500000   0.0288675   0.0000000), wk =   0.0099502
        k(  112) = (   0.6483333   0.0317543   0.0000000), wk =   0.0099502
        k(  113) = (   0.6466667   0.0346410   0.0000000), wk =   0.0099502
        k(  114) = (   0.6450000   0.0375278   0.0000000), wk =   0.0099502
        k(  115) = (   0.6433333   0.0404145   0.0000000), wk =   0.0099502
        k(  116) = (   0.6416667   0.0433013   0.0000000), wk =   0.0099502
        k(  117) = (   0.6400000   0.0461880   0.0000000), wk =   0.0099502
        k(  118) = (   0.6383333   0.0490748   0.0000000), wk =   0.0099502
        k(  119) = (   0.6366667   0.0519615   0.0000000), wk =   0.0099502
        k(  120) = (   0.6350000   0.0548483   0.0000000), wk =   0.0099502
        k(  121) = (   0.6333333   0.0577350   0.0000000), wk =   0.0099502
        k(  122) = (   0.6316667   0.0606218   0.0000000), wk =   0.0099502
        k(  123) = (   0.6300000   0.0635085   0.0000000), wk =   0.0099502
        k(  124) = (   0.6283333   0.0663953   0.0000000), wk =   0.0099502
        k(  125) = (   0.6266667   0.0692820   0.0000000), wk =   0.0099502
        k(  126) = (   0.6250000   0.0721688   0.0000000), wk =   0.0099502
        k(  127) = (   0.6233333   0.0750555   0.0000000), wk =   0.0099502
        k(  128) = (   0.6216667   0.0779423   0.0000000), wk =   0.0099502
        k(  129) = (   0.6200000   0.0808290   0.0000000), wk =   0.0099502
        k(  130) = (   0.6183333   0.0837158   0.0000000), wk =   0.0099502
        k(  131) = (   0.6166667   0.0866025   0.0000000), wk =   0.0099502
        k(  132) = (   0.6150000   0.0894893   0.0000000), wk =   0.0099502
        k(  133) = (   0.6133333   0.0923760   0.0000000), wk =   0.0099502
        k(  134) = (   0.6116667   0.0952628   0.0000000), wk =   0.0099502
        k(  135) = (   0.6100000   0.0981495   0.0000000), wk =   0.0099502
        k(  136) = (   0.6083333   0.1010363   0.0000000), wk =   0.0099502
        k(  137) = (   0.6066667   0.1039230   0.0000000), wk =   0.0099502
        k(  138) = (   0.6050000   0.1068098   0.0000000), wk =   0.0099502
        k(  139) = (   0.6033333   0.1096966   0.0000000), wk =   0.0099502
        k(  140) = (   0.6016667   0.1125833   0.0000000), wk =   0.0099502
        k(  141) = (   0.6000000   0.1154701   0.0000000), wk =   0.0099502
        k(  142) = (   0.5983333   0.1183568   0.0000000), wk =   0.0099502
        k(  143) = (   0.5966667   0.1212436   0.0000000), wk =   0.0099502
        k(  144) = (   0.5950000   0.1241303   0.0000000), wk =   0.0099502
        k(  145) = (   0.5933333   0.1270171   0.0000000), wk =   0.0099502
        k(  146) = (   0.5916667   0.1299038   0.0000000), wk =   0.0099502
        k(  147) = (   0.5900000   0.1327906   0.0000000), wk =   0.0099502
        k(  148) = (   0.5883333   0.1356773   0.0000000), wk =   0.0099502
        k(  149) = (   0.5866667   0.1385641   0.0000000), wk =   0.0099502
        k(  150) = (   0.5850000   0.1414508   0.0000000), wk =   0.0099502
        k(  151) = (   0.5833333   0.1443376   0.0000000), wk =   0.0099502
        k(  152) = (   0.5816667   0.1472243   0.0000000), wk =   0.0099502
        k(  153) = (   0.5800000   0.1501111   0.0000000), wk =   0.0099502
        k(  154) = (   0.5783333   0.1529978   0.0000000), wk =   0.0099502
        k(  155) = (   0.5766667   0.1558846   0.0000000), wk =   0.0099502
        k(  156) = (   0.5750000   0.1587713   0.0000000), wk =   0.0099502
        k(  157) = (   0.5733333   0.1616581   0.0000000), wk =   0.0099502
        k(  158) = (   0.5716667   0.1645448   0.0000000), wk =   0.0099502
        k(  159) = (   0.5700000   0.1674316   0.0000000), wk =   0.0099502
        k(  160) = (   0.5683333   0.1703183   0.0000000), wk =   0.0099502
        k(  161) = (   0.5666667   0.1732051   0.0000000), wk =   0.0099502
        k(  162) = (   0.5650000   0.1760918   0.0000000), wk =   0.0099502
        k(  163) = (   0.5633333   0.1789786   0.0000000), wk =   0.0099502
        k(  164) = (   0.5616667   0.1818653   0.0000000), wk =   0.0099502
        k(  165) = (   0.5600000   0.1847521   0.0000000), wk =   0.0099502
        k(  166) = (   0.5583333   0.1876388   0.0000000), wk =   0.0099502
        k(  167) = (   0.5566667   0.1905256   0.0000000), wk =   0.0099502
        k(  168) = (   0.5550000   0.1934123   0.0000000), wk =   0.0099502
        k(  169) = (   0.5533333   0.1962991   0.0000000), wk =   0.0099502
        k(  170) = (   0.5516667   0.1991858   0.0000000), wk =   0.0099502
        k(  171) = (   0.5500000   0.2020726   0.0000000), wk =   0.0099502
        k(  172) = (   0.5483333   0.2049593   0.0000000), wk =   0.0099502
        k(  173) = (   0.5466667   0.2078461   0.0000000), wk =   0.0099502
        k(  174) = (   0.5450000   0.2107328   0.0000000), wk =   0.0099502
        k(  175) = (   0.5433333   0.2136196   0.0000000), wk =   0.0099502
        k(  176) = (   0.5416667   0.2165064   0.0000000), wk =   0.0099502
        k(  177) = (   0.5400000   0.2193931   0.0000000), wk =   0.0099502
        k(  178) = (   0.5383333   0.2222799   0.0000000), wk =   0.0099502
        k(  179) = (   0.5366667   0.2251666   0.0000000), wk =   0.0099502
        k(  180) = (   0.5350000   0.2280534   0.0000000), wk =   0.0099502
        k(  181) = (   0.5333333   0.2309401   0.0000000), wk =   0.0099502
        k(  182) = (   0.5316667   0.2338269   0.0000000), wk =   0.0099502
        k(  183) = (   0.5300000   0.2367136   0.0000000), wk =   0.0099502
        k(  184) = (   0.5283333   0.2396004   0.0000000), wk =   0.0099502
        k(  185) = (   0.5266667   0.2424871   0.0000000), wk =   0.0099502
        k(  186) = (   0.5250000   0.2453739   0.0000000), wk =   0.0099502
        k(  187) = (   0.5233333   0.2482606   0.0000000), wk =   0.0099502
        k(  188) = (   0.5216667   0.2511474   0.0000000), wk =   0.0099502
        k(  189) = (   0.5200000   0.2540341   0.0000000), wk =   0.0099502
        k(  190) = (   0.5183333   0.2569209   0.0000000), wk =   0.0099502
        k(  191) = (   0.5166667   0.2598076   0.0000000), wk =   0.0099502
        k(  192) = (   0.5150000   0.2626944   0.0000000), wk =   0.0099502
        k(  193) = (   0.5133333   0.2655811   0.0000000), wk =   0.0099502
        k(  194) = (   0.5116667   0.2684679   0.0000000), wk =   0.0099502
        k(  195) = (   0.5100000   0.2713546   0.0000000), wk =   0.0099502
        k(  196) = (   0.5083333   0.2742414   0.0000000), wk =   0.0099502
        k(  197) = (   0.5066667   0.2771281   0.0000000), wk =   0.0099502
        k(  198) = (   0.5050000   0.2800149   0.0000000), wk =   0.0099502
        k(  199) = (   0.5033333   0.2829016   0.0000000), wk =   0.0099502
        k(  200) = (   0.5016667   0.2857884   0.0000000), wk =   0.0099502
        k(  201) = (   0.5000000   0.2886751   0.0000000), wk =   0.0099502

                       cryst. coord.
        k(    1) = (   0.0000000   0.0000000   0.0000000), wk =   0.0099502
        k(    2) = (   0.0066667  -0.0033333   0.0000000), wk =   0.0099502
        k(    3) = (   0.0133333  -0.0066667   0.0000000), wk =   0.0099502
        k(    4) = (   0.0200000  -0.0100000   0.0000000), wk =   0.0099502
        k(    5) = (   0.0266667  -0.0133333   0.0000000), wk =   0.0099502
        k(    6) = (   0.0333333  -0.0166667   0.0000000), wk =   0.0099502
        k(    7) = (   0.0400000  -0.0200000   0.0000000), wk =   0.0099502
        k(    8) = (   0.0466667  -0.0233333   0.0000000), wk =   0.0099502
        k(    9) = (   0.0533333  -0.0266667   0.0000000), wk =   0.0099502
        k(   10) = (   0.0600000  -0.0300000   0.0000000), wk =   0.0099502
        k(   11) = (   0.0666667  -0.0333333   0.0000000), wk =   0.0099502
        k(   12) = (   0.0733333  -0.0366667   0.0000000), wk =   0.0099502
        k(   13) = (   0.0800000  -0.0400000   0.0000000), wk =   0.0099502
        k(   14) = (   0.0866667  -0.0433333   0.0000000), wk =   0.0099502
        k(   15) = (   0.0933333  -0.0466667   0.0000000), wk =   0.0099502
        k(   16) = (   0.1000000  -0.0500000   0.0000000), wk =   0.0099502
        k(   17) = (   0.1066667  -0.0533333   0.0000000), wk =   0.0099502
        k(   18) = (   0.1133333  -0.0566667   0.0000000), wk =   0.0099502
        k(   19) = (   0.1200000  -0.0600000   0.0000000), wk =   0.0099502
        k(   20) = (   0.1266667  -0.0633333   0.0000000), wk =   0.0099502
        k(   21) = (   0.1333333  -0.0666667   0.0000000), wk =   0.0099502
        k(   22) = (   0.1400000  -0.0700000   0.0000000), wk =   0.0099502
        k(   23) = (   0.1466667  -0.0733333   0.0000000), wk =   0.0099502
        k(   24) = (   0.1533333  -0.0766667   0.0000000), wk =   0.0099502
        k(   25) = (   0.1600000  -0.0800000   0.0000000), wk =   0.0099502
        k(   26) = (   0.1666667  -0.0833333   0.0000000), wk =   0.0099502
        k(   27) = (   0.1733333  -0.0866667   0.0000000), wk =   0.0099502
        k(   28) = (   0.1800000  -0.0900000   0.0000000), wk =   0.0099502
        k(   29) = (   0.1866667  -0.0933333   0.0000000), wk =   0.0099502
        k(   30) = (   0.1933333  -0.0966667   0.0000000), wk =   0.0099502
        k(   31) = (   0.2000000  -0.1000000   0.0000000), wk =   0.0099502
        k(   32) = (   0.2066667  -0.1033333   0.0000000), wk =   0.0099502
        k(   33) = (   0.2133333  -0.1066667   0.0000000), wk =   0.0099502
        k(   34) = (   0.2200000  -0.1100000   0.0000000), wk =   0.0099502
        k(   35) = (   0.2266667  -0.1133333   0.0000000), wk =   0.0099502
        k(   36) = (   0.2333333  -0.1166667   0.0000000), wk =   0.0099502
        k(   37) = (   0.2400000  -0.1200000   0.0000000), wk =   0.0099502
        k(   38) = (   0.2466667  -0.1233333   0.0000000), wk =   0.0099502
        k(   39) = (   0.2533333  -0.1266667   0.0000000), wk =   0.0099502
        k(   40) = (   0.2600000  -0.1300000   0.0000000), wk =   0.0099502
        k(   41) = (   0.2666667  -0.1333333   0.0000000), wk =   0.0099502
        k(   42) = (   0.2733333  -0.1366667   0.0000000), wk =   0.0099502
        k(   43) = (   0.2800000  -0.1400000   0.0000000), wk =   0.0099502
        k(   44) = (   0.2866667  -0.1433333   0.0000000), wk =   0.0099502
        k(   45) = (   0.2933333  -0.1466667   0.0000000), wk =   0.0099502
        k(   46) = (   0.3000000  -0.1500000   0.0000000), wk =   0.0099502
        k(   47) = (   0.3066667  -0.1533333   0.0000000), wk =   0.0099502
        k(   48) = (   0.3133333  -0.1566667   0.0000000), wk =   0.0099502
        k(   49) = (   0.3200000  -0.1600000   0.0000000), wk =   0.0099502
        k(   50) = (   0.3266667  -0.1633333   0.0000000), wk =   0.0099502
        k(   51) = (   0.3333333  -0.1666667   0.0000000), wk =   0.0099502
        k(   52) = (   0.3400000  -0.1700000   0.0000000), wk =   0.0099502
        k(   53) = (   0.3466667  -0.1733333   0.0000000), wk =   0.0099502
        k(   54) = (   0.3533333  -0.1766667   0.0000000), wk =   0.0099502
        k(   55) = (   0.3600000  -0.1800000   0.0000000), wk =   0.0099502
        k(   56) = (   0.3666667  -0.1833333   0.0000000), wk =   0.0099502
        k(   57) = (   0.3733333  -0.1866667   0.0000000), wk =   0.0099502
        k(   58) = (   0.3800000  -0.1900000   0.0000000), wk =   0.0099502
        k(   59) = (   0.3866667  -0.1933333   0.0000000), wk =   0.0099502
        k(   60) = (   0.3933333  -0.1966667   0.0000000), wk =   0.0099502
        k(   61) = (   0.4000000  -0.2000000   0.0000000), wk =   0.0099502
        k(   62) = (   0.4066667  -0.2033333   0.0000000), wk =   0.0099502
        k(   63) = (   0.4133333  -0.2066667   0.0000000), wk =   0.0099502
        k(   64) = (   0.4200000  -0.2100000   0.0000000), wk =   0.0099502
        k(   65) = (   0.4266667  -0.2133333   0.0000000), wk =   0.0099502
        k(   66) = (   0.4333333  -0.2166667   0.0000000), wk =   0.0099502
        k(   67) = (   0.4400000  -0.2200000   0.0000000), wk =   0.0099502
        k(   68) = (   0.4466667  -0.2233333   0.0000000), wk =   0.0099502
        k(   69) = (   0.4533333  -0.2266667   0.0000000), wk =   0.0099502
        k(   70) = (   0.4600000  -0.2300000   0.0000000), wk =   0.0099502
        k(   71) = (   0.4666667  -0.2333333   0.0000000), wk =   0.0099502
        k(   72) = (   0.4733333  -0.2366667   0.0000000), wk =   0.0099502
        k(   73) = (   0.4800000  -0.2400000   0.0000000), wk =   0.0099502
        k(   74) = (   0.4866667  -0.2433333   0.0000000), wk =   0.0099502
        k(   75) = (   0.4933333  -0.2466667   0.0000000), wk =   0.0099502
        k(   76) = (   0.5000000  -0.2500000   0.0000000), wk =   0.0099502
        k(   77) = (   0.5066667  -0.2533333   0.0000000), wk =   0.0099502
        k(   78) = (   0.5133333  -0.2566667   0.0000000), wk =   0.0099502
        k(   79) = (   0.5200000  -0.2600000   0.0000000), wk =   0.0099502
        k(   80) = (   0.5266667  -0.2633333   0.0000000), wk =   0.0099502
        k(   81) = (   0.5333333  -0.2666667   0.0000000), wk =   0.0099502
        k(   82) = (   0.5400000  -0.2700000   0.0000000), wk =   0.0099502
        k(   83) = (   0.5466667  -0.2733333   0.0000000), wk =   0.0099502
        k(   84) = (   0.5533333  -0.2766667   0.0000000), wk =   0.0099502
        k(   85) = (   0.5600000  -0.2800000   0.0000000), wk =   0.0099502
        k(   86) = (   0.5666667  -0.2833333   0.0000000), wk =   0.0099502
        k(   87) = (   0.5733333  -0.2866667   0.0000000), wk =   0.0099502
        k(   88) = (   0.5800000  -0.2900000   0.0000000), wk =   0.0099502
        k(   89) = (   0.5866667  -0.2933333   0.0000000), wk =   0.0099502
        k(   90) = (   0.5933333  -0.2966667   0.0000000), wk =   0.0099502
        k(   91) = (   0.6000000  -0.3000000   0.0000000), wk =   0.0099502
        k(   92) = (   0.6066667  -0.3033333   0.0000000), wk =   0.0099502
        k(   93) = (   0.6133333  -0.3066667   0.0000000), wk =   0.0099502
        k(   94) = (   0.6200000  -0.3100000   0.0000000), wk =   0.0099502
        k(   95) = (   0.6266667  -0.3133333   0.0000000), wk =   0.0099502
        k(   96) = (   0.6333333  -0.3166667   0.0000000), wk =   0.0099502
        k(   97) = (   0.6400000  -0.3200000   0.0000000), wk =   0.0099502
        k(   98) = (   0.6466667  -0.3233333   0.0000000), wk =   0.0099502
        k(   99) = (   0.6533333  -0.3266667   0.0000000), wk =   0.0099502
        k(  100) = (   0.6600000  -0.3300000   0.0000000), wk =   0.0099502
        k(  101) = (   0.6666667  -0.3333333   0.0000000), wk =   0.0099502
        k(  102) = (   0.6650000  -0.3300000   0.0000000), wk =   0.0099502
        k(  103) = (   0.6633333  -0.3266667   0.0000000), wk =   0.0099502
        k(  104) = (   0.6616667  -0.3233333   0.0000000), wk =   0.0099502
        k(  105) = (   0.6600000  -0.3200000   0.0000000), wk =   0.0099502
        k(  106) = (   0.6583333  -0.3166667   0.0000000), wk =   0.0099502
        k(  107) = (   0.6566667  -0.3133333   0.0000000), wk =   0.0099502
        k(  108) = (   0.6550000  -0.3100000   0.0000000), wk =   0.0099502
        k(  109) = (   0.6533333  -0.3066667   0.0000000), wk =   0.0099502
        k(  110) = (   0.6516667  -0.3033333   0.0000000), wk =   0.0099502
        k(  111) = (   0.6500000  -0.3000000   0.0000000), wk =   0.0099502
        k(  112) = (   0.6483333  -0.2966667   0.0000000), wk =   0.0099502
        k(  113) = (   0.6466667  -0.2933333   0.0000000), wk =   0.0099502
        k(  114) = (   0.6450000  -0.2900000   0.0000000), wk =   0.0099502
        k(  115) = (   0.6433333  -0.2866667   0.0000000), wk =   0.0099502
        k(  116) = (   0.6416667  -0.2833333   0.0000000), wk =   0.0099502
        k(  117) = (   0.6400000  -0.2800000   0.0000000), wk =   0.0099502
        k(  118) = (   0.6383333  -0.2766667   0.0000000), wk =   0.0099502
        k(  119) = (   0.6366667  -0.2733333   0.0000000), wk =   0.0099502
        k(  120) = (   0.6350000  -0.2700000   0.0000000), wk =   0.0099502
        k(  121) = (   0.6333333  -0.2666667   0.0000000), wk =   0.0099502
        k(  122) = (   0.6316667  -0.2633333   0.0000000), wk =   0.0099502
        k(  123) = (   0.6300000  -0.2600000   0.0000000), wk =   0.0099502
        k(  124) = (   0.6283333  -0.2566667   0.0000000), wk =   0.0099502
        k(  125) = (   0.6266667  -0.2533333   0.0000000), wk =   0.0099502
        k(  126) = (   0.6250000  -0.2500000   0.0000000), wk =   0.0099502
        k(  127) = (   0.6233333  -0.2466667   0.0000000), wk =   0.0099502
        k(  128) = (   0.6216667  -0.2433333   0.0000000), wk =   0.0099502
        k(  129) = (   0.6200000  -0.2400000   0.0000000), wk =   0.0099502
        k(  130) = (   0.6183333  -0.2366667   0.0000000), wk =   0.0099502
        k(  131) = (   0.6166667  -0.2333333   0.0000000), wk =   0.0099502
        k(  132) = (   0.6150000  -0.2300000   0.0000000), wk =   0.0099502
        k(  133) = (   0.6133333  -0.2266667   0.0000000), wk =   0.0099502
        k(  134) = (   0.6116667  -0.2233333   0.0000000), wk =   0.0099502
        k(  135) = (   0.6100000  -0.2200000   0.0000000), wk =   0.0099502
        k(  136) = (   0.6083333  -0.2166667   0.0000000), wk =   0.0099502
        k(  137) = (   0.6066667  -0.2133333   0.0000000), wk =   0.0099502
        k(  138) = (   0.6050000  -0.2100000   0.0000000), wk =   0.0099502
        k(  139) = (   0.6033333  -0.2066667   0.0000000), wk =   0.0099502
        k(  140) = (   0.6016667  -0.2033333   0.0000000), wk =   0.0099502
        k(  141) = (   0.6000000  -0.2000000   0.0000000), wk =   0.0099502
        k(  142) = (   0.5983333  -0.1966667   0.0000000), wk =   0.0099502
        k(  143) = (   0.5966667  -0.1933333   0.0000000), wk =   0.0099502
        k(  144) = (   0.5950000  -0.1900000   0.0000000), wk =   0.0099502
        k(  145) = (   0.5933333  -0.1866667   0.0000000), wk =   0.0099502
        k(  146) = (   0.5916667  -0.1833333   0.0000000), wk =   0.0099502
        k(  147) = (   0.5900000  -0.1800000   0.0000000), wk =   0.0099502
        k(  148) = (   0.5883333  -0.1766667   0.0000000), wk =   0.0099502
        k(  149) = (   0.5866667  -0.1733333   0.0000000), wk =   0.0099502
        k(  150) = (   0.5850000  -0.1700000   0.0000000), wk =   0.0099502
        k(  151) = (   0.5833333  -0.1666667   0.0000000), wk =   0.0099502
        k(  152) = (   0.5816667  -0.1633333   0.0000000), wk =   0.0099502
        k(  153) = (   0.5800000  -0.1600000   0.0000000), wk =   0.0099502
        k(  154) = (   0.5783333  -0.1566667   0.0000000), wk =   0.0099502
        k(  155) = (   0.5766667  -0.1533333   0.0000000), wk =   0.0099502
        k(  156) = (   0.5750000  -0.1500000   0.0000000), wk =   0.0099502
        k(  157) = (   0.5733333  -0.1466667   0.0000000), wk =   0.0099502
        k(  158) = (   0.5716667  -0.1433333   0.0000000), wk =   0.0099502
        k(  159) = (   0.5700000  -0.1400000   0.0000000), wk =   0.0099502
        k(  160) = (   0.5683333  -0.1366667   0.0000000), wk =   0.0099502
        k(  161) = (   0.5666667  -0.1333333   0.0000000), wk =   0.0099502
        k(  162) = (   0.5650000  -0.1300000   0.0000000), wk =   0.0099502
        k(  163) = (   0.5633333  -0.1266667   0.0000000), wk =   0.0099502
        k(  164) = (   0.5616667  -0.1233333   0.0000000), wk =   0.0099502
        k(  165) = (   0.5600000  -0.1200000   0.0000000), wk =   0.0099502
        k(  166) = (   0.5583333  -0.1166667   0.0000000), wk =   0.0099502
        k(  167) = (   0.5566667  -0.1133333   0.0000000), wk =   0.0099502
        k(  168) = (   0.5550000  -0.1100000   0.0000000), wk =   0.0099502
        k(  169) = (   0.5533333  -0.1066667   0.0000000), wk =   0.0099502
        k(  170) = (   0.5516667  -0.1033333   0.0000000), wk =   0.0099502
        k(  171) = (   0.5500000  -0.1000000   0.0000000), wk =   0.0099502
        k(  172) = (   0.5483333  -0.0966667   0.0000000), wk =   0.0099502
        k(  173) = (   0.5466667  -0.0933333   0.0000000), wk =   0.0099502
        k(  174) = (   0.5450000  -0.0900000   0.0000000), wk =   0.0099502
        k(  175) = (   0.5433333  -0.0866667   0.0000000), wk =   0.0099502
        k(  176) = (   0.5416667  -0.0833333   0.0000000), wk =   0.0099502
        k(  177) = (   0.5400000  -0.0800000   0.0000000), wk =   0.0099502
        k(  178) = (   0.5383333  -0.0766667   0.0000000), wk =   0.0099502
        k(  179) = (   0.5366667  -0.0733333   0.0000000), wk =   0.0099502
        k(  180) = (   0.5350000  -0.0700000   0.0000000), wk =   0.0099502
        k(  181) = (   0.5333333  -0.0666667   0.0000000), wk =   0.0099502
        k(  182) = (   0.5316667  -0.0633333   0.0000000), wk =   0.0099502
        k(  183) = (   0.5300000  -0.0600000   0.0000000), wk =   0.0099502
        k(  184) = (   0.5283333  -0.0566667   0.0000000), wk =   0.0099502
        k(  185) = (   0.5266667  -0.0533333   0.0000000), wk =   0.0099502
        k(  186) = (   0.5250000  -0.0500000   0.0000000), wk =   0.0099502
        k(  187) = (   0.5233333  -0.0466667   0.0000000), wk =   0.0099502
        k(  188) = (   0.5216667  -0.0433333   0.0000000), wk =   0.0099502
        k(  189) = (   0.5200000  -0.0400000   0.0000000), wk =   0.0099502
        k(  190) = (   0.5183333  -0.0366667   0.0000000), wk =   0.0099502
        k(  191) = (   0.5166667  -0.0333333   0.0000000), wk =   0.0099502
        k(  192) = (   0.5150000  -0.0300000   0.0000000), wk =   0.0099502
        k(  193) = (   0.5133333  -0.0266667   0.0000000), wk =   0.0099502
        k(  194) = (   0.5116667  -0.0233333   0.0000000), wk =   0.0099502
        k(  195) = (   0.5100000  -0.0200000   0.0000000), wk =   0.0099502
        k(  196) = (   0.5083333  -0.0166667   0.0000000), wk =   0.0099502
        k(  197) = (   0.5066667  -0.0133333   0.0000000), wk =   0.0099502
        k(  198) = (   0.5050000  -0.0100000   0.0000000), wk =   0.0099502
        k(  199) = (   0.5033333  -0.0066667   0.0000000), wk =   0.0099502
        k(  200) = (   0.5016667  -0.0033333   0.0000000), wk =   0.0099502
        k(  201) = (   0.5000000   0.0000000   0.0000000), wk =   0.0099502

     Dense  grid:   229233 G-vectors     FFT dimensions: (  40,  40, 324)

     Dynamical RAM for                 wfc:       1.40 MB

     Dynamical RAM for     wfc (w. buffer):       1.40 MB

     Dynamical RAM for           str. fact:       0.70 MB

     Dynamical RAM for           local pot:       0.00 MB

     Dynamical RAM for          nlocal pot:       2.36 MB

     Dynamical RAM for                qrad:       3.24 MB

     Dynamical RAM for          rho,v,vnew:       2.26 MB

     Dynamical RAM for           G-vectors:       1.49 MB

     Dynamical RAM for          h,s,v(r/c):       0.02 MB

     Dynamical RAM for          <psi|beta>:       0.03 MB

     Dynamical RAM for                 psi:       2.80 MB

     Dynamical RAM for                hpsi:       2.80 MB

     Dynamical RAM for                spsi:       2.80 MB

     Dynamical RAM for      wfcinit/wfcrot:       2.82 MB

     Dynamical RAM for           addusdens:      16.70 MB

     Estimated static dynamical RAM per process >      14.51 MB

     Estimated max dynamical RAM per process >      31.21 MB

     Estimated total dynamical RAM >       1.22 GB

     The potential is recalculated from file :
     ./mose2.save/charge-density


     negative rho (up, down):  1.202E-04 0.000E+00
     Starting wfcs are   28 randomized atomic wfcs +    4 random wfcs
     Checking if some PAW data can be deallocated... 
       PAW data deallocated on   26 nodes for type:  1
       PAW data deallocated on   14 nodes for type:  2

     Band Structure Calculation
     Davidson diagonalization with overlap

     Computing kpt #:     1  of    51 on this pool
     total cpu time spent up to now is        3.8 secs

     Computing kpt #:     2  of    51 on this pool
     total cpu time spent up to now is        5.6 secs

     Computing kpt #:     3  of    51 on this pool
     total cpu time spent up to now is        7.5 secs

     Computing kpt #:     4  of    51 on this pool
     total cpu time spent up to now is        9.4 secs

     Computing kpt #:     5  of    51 on this pool
     total cpu time spent up to now is       11.2 secs

     Computing kpt #:     6  of    51 on this pool
     total cpu time spent up to now is       13.0 secs

     Computing kpt #:     7  of    51 on this pool
     total cpu time spent up to now is       14.7 secs

     Computing kpt #:     8  of    51 on this pool
     total cpu time spent up to now is       16.3 secs

     Computing kpt #:     9  of    51 on this pool
     total cpu time spent up to now is       17.9 secs

     Computing kpt #:    10  of    51 on this pool
     total cpu time spent up to now is       19.6 secs

     Computing kpt #:    11  of    51 on this pool
     total cpu time spent up to now is       21.2 secs

     Computing kpt #:    12  of    51 on this pool
     total cpu time spent up to now is       23.0 secs

     Computing kpt #:    13  of    51 on this pool
     total cpu time spent up to now is       24.6 secs

     Computing kpt #:    14  of    51 on this pool
     total cpu time spent up to now is       26.3 secs

     Computing kpt #:    15  of    51 on this pool
     total cpu time spent up to now is       27.9 secs

     Computing kpt #:    16  of    51 on this pool
     total cpu time spent up to now is       29.5 secs

     Computing kpt #:    17  of    51 on this pool
     total cpu time spent up to now is       31.2 secs

     Computing kpt #:    18  of    51 on this pool
     total cpu time spent up to now is       32.8 secs

     Computing kpt #:    19  of    51 on this pool
     total cpu time spent up to now is       34.6 secs

     Computing kpt #:    20  of    51 on this pool
     total cpu time spent up to now is       36.4 secs

     Computing kpt #:    21  of    51 on this pool
     total cpu time spent up to now is       38.7 secs

     Computing kpt #:    22  of    51 on this pool
     total cpu time spent up to now is       40.5 secs

     Computing kpt #:    23  of    51 on this pool
     total cpu time spent up to now is       42.3 secs

     Computing kpt #:    24  of    51 on this pool
     total cpu time spent up to now is       44.2 secs

     Computing kpt #:    25  of    51 on this pool
     total cpu time spent up to now is       46.0 secs

     Computing kpt #:    26  of    51 on this pool
     total cpu time spent up to now is       47.8 secs

     Computing kpt #:    27  of    51 on this pool
     total cpu time spent up to now is       49.6 secs

     Computing kpt #:    28  of    51 on this pool
     total cpu time spent up to now is       51.4 secs

     Computing kpt #:    29  of    51 on this pool
     total cpu time spent up to now is       53.2 secs

     Computing kpt #:    30  of    51 on this pool
     total cpu time spent up to now is       54.9 secs

     Computing kpt #:    31  of    51 on this pool
     total cpu time spent up to now is       56.7 secs

     Computing kpt #:    32  of    51 on this pool
     total cpu time spent up to now is       58.5 secs

     Computing kpt #:    33  of    51 on this pool
     total cpu time spent up to now is       60.3 secs

     Computing kpt #:    34  of    51 on this pool
     total cpu time spent up to now is       62.1 secs

     Computing kpt #:    35  of    51 on this pool
     total cpu time spent up to now is       64.0 secs

     Computing kpt #:    36  of    51 on this pool
     total cpu time spent up to now is       65.8 secs

     Computing kpt #:    37  of    51 on this pool
     total cpu time spent up to now is       67.7 secs

     Computing kpt #:    38  of    51 on this pool
     total cpu time spent up to now is       69.9 secs

     Computing kpt #:    39  of    51 on this pool
     total cpu time spent up to now is       71.9 secs

     Computing kpt #:    40  of    51 on this pool
     total cpu time spent up to now is       74.1 secs

     Computing kpt #:    41  of    51 on this pool
     total cpu time spent up to now is       76.3 secs

     Computing kpt #:    42  of    51 on this pool
     total cpu time spent up to now is       78.5 secs

     Computing kpt #:    43  of    51 on this pool
     total cpu time spent up to now is       80.7 secs

     Computing kpt #:    44  of    51 on this pool
     total cpu time spent up to now is       82.7 secs

     Computing kpt #:    45  of    51 on this pool
     total cpu time spent up to now is       84.6 secs

     Computing kpt #:    46  of    51 on this pool
     total cpu time spent up to now is       86.4 secs

     Computing kpt #:    47  of    51 on this pool
     total cpu time spent up to now is       88.2 secs

     Computing kpt #:    48  of    51 on this pool
     total cpu time spent up to now is       89.9 secs

     Computing kpt #:    49  of    51 on this pool
     total cpu time spent up to now is       91.7 secs

     Computing kpt #:    50  of    51 on this pool
     total cpu time spent up to now is       93.3 secs

     Computing kpt #:    51  of    51 on this pool
     total cpu time spent up to now is       94.7 secs

     ethr =  2.17E-13,  avg # of iterations = 54.8

     total cpu time spent up to now is       94.7 secs

     End of band structure calculation

          k = 0.0000 0.0000 0.0000 ( 28541 PWs)   bands (ev):

   -61.8622 -48.5576 -48.5576 -48.5572 -48.5572 -48.5158 -48.5158 -48.5148
   -48.5148 -48.4993 -48.4971 -36.0689 -35.8489 -35.8489 -15.5323 -14.4889
    -6.7212  -3.2942  -3.2942  -3.1014  -2.2651  -2.2651  -1.5097   1.8423
     1.8423   2.0945   2.0945   3.6041   3.8482   4.1096   4.7235   4.8617

          k = 0.0067 0.0000 0.0000 ( 28549 PWs)   bands (ev):

   -61.8622 -48.5576 -48.5576 -48.5572 -48.5572 -48.5158 -48.5158 -48.5148
   -48.5148 -48.4993 -48.4971 -36.0689 -35.8490 -35.8489 -15.5318 -14.4887
    -6.7206  -3.2955  -3.2937  -3.1031  -2.2659  -2.2640  -1.5098   1.8405
     1.8431   2.0916   2.0937   3.6055   3.8489   4.1105   4.7242   4.8637

          k = 0.0133 0.0000 0.0000 ( 28541 PWs)   bands (ev):

   -61.8622 -48.5576 -48.5576 -48.5572 -48.5572 -48.5158 -48.5158 -48.5148
   -48.5148 -48.4993 -48.4971 -36.0688 -35.8493 -35.8490 -15.5304 -14.4879
    -6.7188  -3.2994  -3.2923  -3.1083  -2.2685  -2.2609  -1.5100   1.8351
     1.8454   2.0831   2.0913   3.6096   3.8509   4.1130   4.7261   4.8696

          k = 0.0200 0.0000 0.0000 ( 28533 PWs)   bands (ev):

   -61.8621 -48.5576 -48.5576 -48.5572 -48.5572 -48.5158 -48.5158 -48.5148
   -48.5148 -48.4993 -48.4971 -36.0687 -35.8498 -35.8491 -15.5280 -14.4866
    -6.7158  -3.3059  -3.2898  -3.1168  -2.2727  -2.2558  -1.5103   1.8262
     1.8493   2.0690   2.0874   3.6164   3.8542   4.1173   4.7293   4.8794

          k = 0.0267 0.0000 0.0000 ( 28527 PWs)   bands (ev):

   -61.8621 -48.5576 -48.5576 -48.5572 -48.5572 -48.5158 -48.5158 -48.5148
   -48.5148 -48.4993 -48.4971 -36.0686 -35.8505 -35.8493 -15.5246 -14.4847
    -6.7116  -3.3149  -3.2864  -3.1284  -2.2786  -2.2488  -1.5109   1.8140
     1.8547   2.0497   2.0819   3.6257   3.8589   4.1231   4.7338   4.8930

          k = 0.0333 0.0000 0.0000 ( 28531 PWs)   bands (ev):

   -61.8620 -48.5576 -48.5576 -48.5572 -48.5572 -48.5158 -48.5158 -48.5148
   -48.5148 -48.4993 -48.4971 -36.0684 -35.8513 -35.8495 -15.5203 -14.4823
    -6.7063  -3.3264  -3.2820  -3.1430  -2.2862  -2.2402  -1.5116   1.7985
     1.8617   2.0256   2.0748   3.6371   3.8648   4.1306   4.7396   4.9102

          k = 0.0400 0.0000 0.0000 ( 28523 PWs)   bands (ev):

   -61.8619 -48.5576 -48.5576 -48.5572 -48.5572 -48.5158 -48.5158 -48.5148
   -48.5148 -48.4993 -48.4971 -36.0682 -35.8524 -35.8497 -15.5149 -14.4794
    -6.6997  -3.3405  -3.2766  -3.1604  -2.2956  -2.2302  -1.5124   1.7800
     1.8701   1.9970   2.0661   3.6506   3.8721   4.1396   4.7466   4.9309

          k = 0.0467 0.0000 0.0000 ( 28533 PWs)   bands (ev):

   -61.8618 -48.5576 -48.5575 -48.5572 -48.5572 -48.5158 -48.5158 -48.5148
   -48.5148 -48.4993 -48.4971 -36.0679 -35.8536 -35.8500 -15.5087 -14.4760
    -6.6920  -3.3569  -3.2702  -3.1803  -2.3067  -2.2189  -1.5135   1.7588
     1.8801   1.9643   2.0560   3.6657   3.8807   4.1501   4.7549   4.9549

          k = 0.0533 0.0000 0.0000 ( 28527 PWs)   bands (ev):

   -61.8616 -48.5576 -48.5575 -48.5572 -48.5571 -48.5158 -48.5158 -48.5148
   -48.5148 -48.4993 -48.4971 -36.0676 -35.8551 -35.8503 -15.5015 -14.4721
    -6.6832  -3.3757  -3.2629  -3.2024  -2.3196  -2.2068  -1.5149   1.7350
     1.8914   1.9282   2.0443   3.6824   3.8906   4.1620   4.7645   4.9817

          k = 0.0600 0.0000 0.0000 ( 28511 PWs)   bands (ev):

   -61.8615 -48.5576 -48.5575 -48.5572 -48.5571 -48.5158 -48.5158 -48.5148
   -48.5148 -48.4992 -48.4971 -36.0672 -35.8567 -35.8507 -15.4933 -14.4676
    -6.6732  -3.3969  -3.2547  -3.2265  -2.3344  -2.1938  -1.5165   1.7091
     1.8889   1.9042   2.0311   3.7004   3.9017   4.1753   4.7753   5.0112

          k = 0.0667 0.0000 0.0000 ( 28501 PWs)   bands (ev):

   -61.8613 -48.5576 -48.5575 -48.5572 -48.5571 -48.5158 -48.5158 -48.5148
   -48.5148 -48.4992 -48.4971 -36.0668 -35.8585 -35.8511 -15.4842 -14.4626
    -6.6620  -3.4203  -3.2525  -3.2455  -2.3509  -2.1804  -1.5184   1.6812
     1.8469   1.9183   2.0164   3.7195   3.9141   4.1899   4.7874   5.0429

          k = 0.0733 0.0000 0.0000 ( 28499 PWs)   bands (ev):

   -61.8612 -48.5576 -48.5574 -48.5572 -48.5570 -48.5158 -48.5158 -48.5149
   -48.5148 -48.4992 -48.4970 -36.0664 -35.8605 -35.8516 -15.4742 -14.4571
    -6.6498  -3.4458  -3.2799  -3.2355  -2.3694  -2.1665  -1.5206   1.6518
     1.8028   1.9338   2.0003   3.7396   3.9278   4.2058   4.8007   5.0765

          k = 0.0800 0.0000 0.0000 ( 28488 PWs)   bands (ev):

   -61.8610 -48.5576 -48.5574 -48.5572 -48.5570 -48.5158 -48.5158 -48.5149
   -48.5148 -48.4992 -48.4970 -36.0659 -35.8627 -35.8521 -15.4632 -14.4511
    -6.6364  -3.4735  -3.3088  -3.2245  -2.3897  -2.1526  -1.5233   1.6211
     1.7568   1.9505   1.9827   3.7606   3.9427   4.2228   4.8153   5.1116

          k = 0.0867 0.0000 0.0000 ( 28490 PWs)   bands (ev):

   -61.8608 -48.5576 -48.5573 -48.5573 -48.5570 -48.5158 -48.5158 -48.5149
   -48.5148 -48.4992 -48.4970 -36.0654 -35.8650 -35.8526 -15.4513 -14.4446
    -6.6220  -3.5031  -3.3388  -3.2127  -2.4120  -2.1386  -1.5263   1.5895
     1.7093   1.9638   1.9685   3.7824   3.9589   4.2411   4.8311   5.1478

          k = 0.0933 0.0000 0.0000 ( 28496 PWs)   bands (ev):

   -61.8605 -48.5575 -48.5573 -48.5573 -48.5569 -48.5158 -48.5158 -48.5149
   -48.5148 -48.4992 -48.4970 -36.0648 -35.8675 -35.8532 -15.4385 -14.4376
    -6.6065  -3.5347  -3.3699  -3.2000  -2.4362  -2.1248  -1.5298   1.5572
     1.6607   1.9435   1.9876   3.8050   3.9763   4.2604   4.8481   5.1847

          k = 0.1000 0.0000 0.0000 ( 28494 PWs)   bands (ev):

   -61.8603 -48.5575 -48.5573 -48.5573 -48.5569 -48.5158 -48.5158 -48.5149
   -48.5148 -48.4991 -48.4970 -36.0643 -35.8701 -35.8539 -15.4248 -14.4301
    -6.5900  -3.5681  -3.4019  -3.1865  -2.4625  -2.1112  -1.5339   1.5245
     1.6114   1.9219   2.0078   3.8283   3.9950   4.2809   4.8663   5.2220

          k = 0.1067 0.0000 0.0000 ( 28512 PWs)   bands (ev):

   -61.8600 -48.5575 -48.5573 -48.5572 -48.5569 -48.5158 -48.5158 -48.5150
   -48.5148 -48.4991 -48.4969 -36.0636 -35.8730 -35.8546 -15.4101 -14.4221
    -6.5725  -3.6032  -3.4346  -3.1721  -2.4907  -2.0979  -1.5385   1.4918
     1.5615   1.8990   2.0290   3.8524   4.0149   4.3024   4.8858   5.2594

          k = 0.1133 0.0000 0.0000 ( 28502 PWs)   bands (ev):

   -61.8598 -48.5575 -48.5573 -48.5572 -48.5568 -48.5158 -48.5158 -48.5150
   -48.5148 -48.4991 -48.4969 -36.0630 -35.8759 -35.8553 -15.3946 -14.4136
    -6.5540  -3.6400  -3.4679  -3.1570  -2.5209  -2.0852  -1.5437   1.4594
     1.5114   1.8749   2.0512   3.8772   4.0360   4.3250   4.9065   5.2968

          k = 0.1200 0.0000 0.0000 ( 28516 PWs)   bands (ev):

   -61.8595 -48.5575 -48.5573 -48.5571 -48.5568 -48.5158 -48.5158 -48.5150
   -48.5148 -48.4991 -48.4969 -36.0623 -35.8790 -35.8561 -15.3782 -14.4047
    -6.5345  -3.6782  -3.5018  -3.1412  -2.5531  -2.0730  -1.5495   1.4273
     1.4613   1.8497   2.0743   3.9027   4.0583   4.3487   4.9284   5.3339

          k = 0.1267 0.0000 0.0000 ( 28514 PWs)   bands (ev):

   -61.8592 -48.5575 -48.5573 -48.5571 -48.5567 -48.5158 -48.5158 -48.5150
   -48.5148 -48.4991 -48.4969 -36.0615 -35.8823 -35.8569 -15.3610 -14.3952
    -6.5141  -3.7179  -3.5361  -3.1247  -2.5874  -2.0613  -1.5561   1.3960
     1.4115   1.8235   2.0983   3.9289   4.0819   4.3735   4.9515   5.3708

          k = 0.1333 0.0000 0.0000 ( 28504 PWs)   bands (ev):

   -61.8589 -48.5575 -48.5573 -48.5570 -48.5567 -48.5159 -48.5158 -48.5151
   -48.5148 -48.4990 -48.4968 -36.0608 -35.8857 -35.8577 -15.3429 -14.3853
    -6.4928  -3.7589  -3.5707  -3.1075  -2.6237  -2.0504  -1.5635   1.3622
     1.3656   1.7962   2.1230   3.9560   4.1066   4.3993   4.9759   5.4075

          k = 0.1400 0.0000 0.0000 ( 28504 PWs)   bands (ev):

   -61.8586 -48.5575 -48.5573 -48.5569 -48.5566 -48.5159 -48.5158 -48.5151
   -48.5148 -48.4990 -48.4968 -36.0600 -35.8892 -35.8587 -15.3239 -14.3750
    -6.4707  -3.8011  -3.6055  -3.0897  -2.6619  -2.0402  -1.5716   1.3135
     1.3363   1.7681   2.1484   3.9838   4.1326   4.4261   5.0014   5.4440

          k = 0.1467 0.0000 0.0000 ( 28524 PWs)   bands (ev):

   -61.8582 -48.5575 -48.5573 -48.5569 -48.5565 -48.5159 -48.5158 -48.5151
   -48.5148 -48.4990 -48.4968 -36.0592 -35.8929 -35.8596 -15.3041 -14.3641
    -6.4478  -3.8444  -3.6405  -3.0713  -2.7021  -2.0307  -1.5806   1.2656
     1.3083   1.7391   2.1744   4.0125   4.1597   4.4540   5.0281   5.4803

          k = 0.1533 0.0000 0.0000 ( 28536 PWs)   bands (ev):

   -61.8579 -48.5574 -48.5573 -48.5568 -48.5565 -48.5159 -48.5158 -48.5152
   -48.5148 -48.4989 -48.4967 -36.0583 -35.8967 -35.8606 -15.2835 -14.3529
    -6.4241  -3.8887  -3.6757  -3.0524  -2.7442  -2.0221  -1.5905   1.2187
     1.2818   1.7094   2.2009   4.0420   4.1881   4.4830   5.0560   5.5166

          k = 0.1600 0.0000 0.0000 ( 28572 PWs)   bands (ev):

   -61.8575 -48.5574 -48.5573 -48.5568 -48.5564 -48.5159 -48.5158 -48.5152
   -48.5148 -48.4989 -48.4967 -36.0574 -35.9006 -35.8617 -15.2621 -14.3412
    -6.3997  -3.9338  -3.7109  -3.0332  -2.7882  -2.0144  -1.6013   1.1729
     1.2568   1.6791   2.2279   4.0724   4.2176   4.5131   5.0852   5.5529

          k = 0.1667 0.0000 0.0000 ( 28572 PWs)   bands (ev):

   -61.8572 -48.5574 -48.5573 -48.5567 -48.5564 -48.5159 -48.5158 -48.5152
   -48.5149 -48.4989 -48.4967 -36.0565 -35.9046 -35.8627 -15.2398 -14.3290
    -6.3746  -3.9797  -3.7461  -3.0135  -2.8340  -2.0075  -1.6130   1.1283
     1.2334   1.6483   2.2552   4.1036   4.2483   4.5442   5.1154   5.5894

          k = 0.1733 0.0000 0.0000 ( 28574 PWs)   bands (ev):

   -61.8568 -48.5574 -48.5573 -48.5566 -48.5563 -48.5159 -48.5158 -48.5153
   -48.5149 -48.4988 -48.4966 -36.0556 -35.9086 -35.8639 -15.2168 -14.3165
    -6.3489  -4.0263  -3.7812  -2.9936  -2.8816  -2.0015  -1.6257   1.0851
     1.2119   1.6172   2.2828   4.1357   4.2803   4.5765   5.1469   5.6262

          k = 0.1800 0.0000 0.0000 ( 28568 PWs)   bands (ev):

   -61.8564 -48.5574 -48.5573 -48.5566 -48.5562 -48.5160 -48.5158 -48.5153
   -48.5149 -48.4988 -48.4966 -36.0546 -35.9128 -35.8651 -15.1931 -14.3035
    -6.3227  -4.0734  -3.8163  -2.9735  -2.9308  -1.9965  -1.6393   1.0433
     1.1921   1.5858   2.3107   4.1687   4.3133   4.6098   5.1796   5.6634

          k = 0.1867 0.0000 0.0000 ( 28568 PWs)   bands (ev):

   -61.8560 -48.5574 -48.5573 -48.5565 -48.5562 -48.5160 -48.5158 -48.5153
   -48.5149 -48.4988 -48.4966 -36.0536 -35.9171 -35.8663 -15.1686 -14.2901
    -6.2959  -4.1209  -3.8513  -2.9815  -2.9533  -1.9925  -1.6538   1.0030
     1.1743   1.5544   2.3386   4.2026   4.3476   4.6442   5.2134   5.7010

          k = 0.1933 0.0000 0.0000 ( 28576 PWs)   bands (ev):

   -61.8556 -48.5574 -48.5573 -48.5564 -48.5561 -48.5160 -48.5158 -48.5154
   -48.5149 -48.4987 -48.4965 -36.0526 -35.9215 -35.8676 -15.1434 -14.2763
    -6.2688  -4.1687  -3.8861  -3.0338  -2.9332  -1.9894  -1.6691   0.9642
     1.1584   1.5230   2.3667   4.2374   4.3830   4.6797   5.2484   5.7391

          k = 0.2000 0.0000 0.0000 ( 28572 PWs)   bands (ev):

   -61.8551 -48.5573 -48.5573 -48.5564 -48.5560 -48.5160 -48.5158 -48.5154
   -48.5149 -48.4987 -48.4965 -36.0516 -35.9259 -35.8689 -15.1175 -14.2622
    -6.2413  -4.2167  -3.9208  -3.0873  -2.9132  -1.9873  -1.6853   0.9269
     1.1444   1.4919   2.3946   4.2731   4.4195   4.7163   5.2845   5.7778

          k = 0.2067 0.0000 0.0000 ( 28560 PWs)   bands (ev):

   -61.8547 -48.5573 -48.5573 -48.5563 -48.5560 -48.5160 -48.5158 -48.5154
   -48.5149 -48.4987 -48.4964 -36.0505 -35.9304 -35.8702 -15.0908 -14.2476
    -6.2135  -4.2647  -3.9553  -3.1421  -2.8936  -1.9863  -1.7021   0.8912
     1.1325   1.4611   2.4225   4.3098   4.4572   4.7541   5.3218   5.8171

          k = 0.2133 0.0000 0.0000 ( 28582 PWs)   bands (ev):

   -61.8543 -48.5573 -48.5573 -48.5562 -48.5559 -48.5160 -48.5158 -48.5155
   -48.5149 -48.4986 -48.4964 -36.0494 -35.9349 -35.8716 -15.0636 -14.2327
    -6.1856  -4.3126  -3.9896  -3.1980  -2.8745  -1.9863  -1.7195   0.8570
     1.1224   1.4310   2.4502   4.3474   4.4960   4.7929   5.3602   5.8571

          k = 0.2200 0.0000 0.0000 ( 28580 PWs)   bands (ev):

   -61.8538 -48.5573 -48.5573 -48.5561 -48.5558 -48.5161 -48.5158 -48.5155
   -48.5149 -48.4986 -48.4964 -36.0484 -35.9395 -35.8731 -15.0356 -14.2175
    -6.1576  -4.3603  -4.0238  -3.2548  -2.8561  -1.9873  -1.7374   0.8243
     1.1143   1.4015   2.4777   4.3860   4.5359   4.8329   5.3998   5.8979

          k = 0.2267 0.0000 0.0000 ( 28588 PWs)   bands (ev):

   -61.8534 -48.5573 -48.5573 -48.5561 -48.5557 -48.5161 -48.5158 -48.5156
   -48.5149 -48.4986 -48.4963 -36.0472 -35.9441 -35.8746 -15.0071 -14.2019
    -6.1296  -4.4077  -4.0579  -3.3123  -2.8386  -1.9893  -1.7555   0.7931
     1.1081   1.3731   2.5048   4.4254   4.5769   4.8740   5.4404   5.9394

          k = 0.2333 0.0000 0.0000 ( 28578 PWs)   bands (ev):

   -61.8529 -48.5573 -48.5572 -48.5560 -48.5557 -48.5161 -48.5158 -48.5156
   -48.5149 -48.4985 -48.4963 -36.0461 -35.9488 -35.8761 -14.9779 -14.1860
    -6.1018  -4.4545  -4.0918  -3.3705  -2.8222  -1.9924  -1.7738   0.7633
     1.1037   1.3457   2.5315   4.4658   4.6191   4.9163   5.4822   5.9817

          k = 0.2400 0.0000 0.0000 ( 28582 PWs)   bands (ev):

   -61.8525 -48.5573 -48.5572 -48.5559 -48.5556 -48.5161 -48.5158 -48.5156
   -48.5150 -48.4985 -48.4962 -36.0450 -35.9535 -35.8777 -14.9481 -14.1698
    -6.0744  -4.5006  -4.1257  -3.4291  -2.8073  -1.9965  -1.7918   0.7348
     1.1012   1.3196   2.5577   4.5072   4.6622   4.9597   5.5251   6.0249

          k = 0.2467 0.0000 0.0000 ( 28590 PWs)   bands (ev):

   -61.8520 -48.5573 -48.5572 -48.5558 -48.5555 -48.5162 -48.5158 -48.5157
   -48.5150 -48.4984 -48.4962 -36.0438 -35.9582 -35.8793 -14.9178 -14.1532
    -6.0474  -4.5458  -4.1595  -3.4879  -2.7941  -2.0017  -1.8094   0.7076
     1.1005   1.2949   2.5834   4.5494   4.7065   5.0042   5.5691   6.0689

          k = 0.2533 0.0000 0.0000 ( 28596 PWs)   bands (ev):

   -61.8515 -48.5573 -48.5572 -48.5557 -48.5555 -48.5162 -48.5158 -48.5157
   -48.5150 -48.4984 -48.4961 -36.0427 -35.9629 -35.8810 -14.8870 -14.1364
    -6.0210  -4.5900  -4.1935  -3.5467  -2.7829  -2.0080  -1.8263   0.6817
     1.1015   1.2719   2.6086   4.5926   4.7518   5.0499   5.6142   6.1138

          k = 0.2600 0.0000 0.0000 ( 28596 PWs)   bands (ev):

   -61.8511 -48.5573 -48.5571 -48.5557 -48.5554 -48.5162 -48.5158 -48.5158
   -48.5150 -48.4984 -48.4961 -36.0415 -35.9676 -35.8827 -14.8556 -14.1193
    -5.9954  -4.6328  -4.2276  -3.6052  -2.7740  -2.0153  -1.8422   0.6570
     1.1041   1.2505   2.6330   4.6367   4.7981   5.0967   5.6603   6.1596

          k = 0.2667 0.0000 0.0000 ( 28600 PWs)   bands (ev):

   -61.8506 -48.5573 -48.5571 -48.5556 -48.5553 -48.5162 -48.5158 -48.5158
   -48.5150 -48.4983 -48.4961 -36.0403 -35.9724 -35.8845 -14.8238 -14.1020
    -5.9709  -4.6742  -4.2621  -3.6632  -2.7678  -2.0236  -1.8568   0.6334
     1.1083   1.2310   2.6568   4.6817   4.8454   5.1447   5.7075   6.2062

          k = 0.2733 0.0000 0.0000 ( 28596 PWs)   bands (ev):

   -61.8501 -48.5573 -48.5571 -48.5555 -48.5552 -48.5162 -48.5158 -48.5158
   -48.5150 -48.4983 -48.4960 -36.0392 -35.9771 -35.8863 -14.7915 -14.0844
    -5.9477  -4.7138  -4.2970  -3.7205  -2.7645  -2.0330  -1.8697   0.6110
     1.1140   1.2134   2.6798   4.7276   4.8937   5.1939   5.7558   6.2538

          k = 0.2800 0.0000 0.0000 ( 28610 PWs)   bands (ev):

   -61.8496 -48.5573 -48.5571 -48.5554 -48.5552 -48.5163 -48.5159 -48.5158
   -48.5150 -48.4982 -48.4960 -36.0380 -35.9818 -35.8881 -14.7588 -14.0666
    -5.9261  -4.7513  -4.3326  -3.7766  -2.7645  -2.0435  -1.8807   0.5898
     1.1211   1.1978   2.7021   4.7743   4.9430   5.2442   5.8051   6.3022

          k = 0.2867 0.0000 0.0000 ( 28610 PWs)   bands (ev):

   -61.8491 -48.5573 -48.5570 -48.5554 -48.5551 -48.5163 -48.5159 -48.5158
   -48.5150 -48.4982 -48.4959 -36.0368 -35.9864 -35.8900 -14.7256 -14.0486
    -5.9063  -4.7865  -4.3690  -3.8313  -2.7680  -2.0549  -1.8897   0.5698
     1.1296   1.1842   2.7235   4.8220   4.9932   5.2956   5.8554   6.3516

          k = 0.2933 0.0000 0.0000 ( 28618 PWs)   bands (ev):

   -61.8487 -48.5573 -48.5570 -48.5553 -48.5550 -48.5163 -48.5160 -48.5158
   -48.5151 -48.4982 -48.4959 -36.0356 -35.9911 -35.8920 -14.6922 -14.0303
    -5.8886  -4.8191  -4.4065  -3.8842  -2.7751  -2.0674  -1.8964   0.5511
     1.1394   1.1726   2.7440   4.8704   5.0443   5.3483   5.9067   6.4018

          k = 0.3000 0.0000 0.0000 ( 28620 PWs)   bands (ev):

   -61.8482 -48.5573 -48.5570 -48.5552 -48.5550 -48.5164 -48.5160 -48.5158
   -48.5151 -48.4981 -48.4958 -36.0344 -35.9957 -35.8939 -14.6583 -14.0119
    -5.8734  -4.8486  -4.4453  -3.9350  -2.7859  -2.0810  -1.9008   0.5337
     1.1504   1.1629   2.7637   4.9197   5.0964   5.4021   5.9590   6.4529

          k = 0.3067 0.0000 0.0000 ( 28632 PWs)   bands (ev):

   -61.8477 -48.5573 -48.5569 -48.5551 -48.5549 -48.5164 -48.5160 -48.5158
   -48.5151 -48.4981 -48.4958 -36.0332 -36.0002 -35.8960 -14.6242 -13.9934
    -5.8610  -4.8749  -4.4856  -3.9834  -2.8005  -2.0955  -1.9029   0.5179
     1.1551   1.1624   2.7825   4.9698   5.1493   5.4571   6.0123   6.5050

          k = 0.3133 0.0000 0.0000 ( 28624 PWs)   bands (ev):

   -61.8472 -48.5573 -48.5569 -48.5551 -48.5548 -48.5164 -48.5161 -48.5158
   -48.5151 -48.4980 -48.4957 -36.0320 -36.0047 -35.8980 -14.5898 -13.9747
    -5.8516  -4.8976  -4.5276  -4.0291  -2.8187  -2.1110  -1.9029   0.5036
     1.1492   1.1755   2.8004   5.0206   5.2031   5.5132   6.0666   6.5579

          k = 0.3200 0.0000 0.0000 ( 28644 PWs)   bands (ev):

   -61.8467 -48.5573 -48.5569 -48.5550 -48.5548 -48.5164 -48.5161 -48.5158
   -48.5151 -48.4980 -48.4957 -36.0308 -36.0091 -35.9001 -14.5551 -13.9559
    -5.8456  -4.9166  -4.5715  -4.0718  -2.8403  -2.1275  -1.9008   0.4910
     1.1449   1.1894   2.8174   5.0722   5.2577   5.5706   6.1218   6.6116

          k = 0.3267 0.0000 0.0000 ( 28636 PWs)   bands (ev):

   -61.8462 -48.5572 -48.5568 -48.5549 -48.5547 -48.5165 -48.5162 -48.5157
   -48.5151 -48.4980 -48.4956 -36.0296 -36.0135 -35.9023 -14.5203 -13.9369
    -5.8430  -4.9315  -4.6171  -4.1115  -2.8653  -2.1449  -1.8969   0.4803
     1.1422   1.2042   2.8335   5.1246   5.3131   5.6291   6.1780   6.6661

          k = 0.3333 0.0000 0.0000 ( 28646 PWs)   bands (ev):

   -61.8458 -48.5572 -48.5568 -48.5548 -48.5546 -48.5165 -48.5162 -48.5157
   -48.5152 -48.4979 -48.4956 -36.0284 -36.0177 -35.9044 -14.4852 -13.9179
    -5.8439  -4.9424  -4.6646  -4.1480  -2.8932  -2.1633  -1.8914   0.4716
     1.1410   1.2198   2.8487   5.1776   5.3692   5.6887   6.2350   6.7214

          k = 0.3400 0.0000 0.0000 ( 28618 PWs)   bands (ev):

   -61.8453 -48.5572 -48.5568 -48.5548 -48.5546 -48.5165 -48.5162 -48.5157
   -48.5152 -48.4979 -48.4956 -36.0272 -36.0219 -35.9067 -14.4501 -13.8988
    -5.8483  -4.9494  -4.7138  -4.1815  -2.9240  -2.1826  -1.8846   0.4651
     1.1410   1.2359   2.8630   5.2312   5.4261   5.7496   6.2930   6.7773

          k = 0.3467 0.0000 0.0000 ( 28628 PWs)   bands (ev):

   -61.8448 -48.5572 -48.5567 -48.5547 -48.5545 -48.5165 -48.5163 -48.5157
   -48.5152 -48.4978 -48.4955 -36.0261 -36.0261 -35.9089 -14.4148 -13.8797
    -5.8560  -4.9526  -4.7645  -4.2119  -2.9572  -2.2028  -1.8767   0.4607
     1.1423   1.2526   2.8765   5.2854   5.4837   5.8116   6.3519   6.8336

          k = 0.3533 0.0000 0.0000 ( 28642 PWs)   bands (ev):

   -61.8443 -48.5572 -48.5567 -48.5546 -48.5545 -48.5166 -48.5163 -48.5157
   -48.5152 -48.4978 -48.4955 -36.0301 -36.0249 -35.9112 -14.3795 -13.8605
    -5.8667  -4.9522  -4.8165  -4.2394  -2.9927  -2.2239  -1.8680   0.4587
     1.1446   1.2697   2.8893   5.3401   5.5419   5.8748   6.4116   6.8899

          k = 0.3600 0.0000 0.0000 ( 28652 PWs)   bands (ev):

   -61.8439 -48.5572 -48.5567 -48.5546 -48.5544 -48.5166 -48.5163 -48.5157
   -48.5152 -48.4978 -48.4954 -36.0340 -36.0238 -35.9136 -14.3441 -13.8414
    -5.8802  -4.9487  -4.8695  -4.2643  -3.0303  -2.2458  -1.8587   0.4592
     1.1477   1.2871   2.9013   5.3953   5.6008   5.9392   6.4722   6.9446

          k = 0.3667 0.0000 0.0000 ( 28646 PWs)   bands (ev):

   -61.8434 -48.5572 -48.5566 -48.5545 -48.5544 -48.5166 -48.5164 -48.5157
   -48.5152 -48.4977 -48.4954 -36.0378 -36.0226 -35.9160 -14.3088 -13.8222
    -5.8959  -4.9424  -4.9233  -4.2867  -3.0696  -2.2685  -1.8488   0.4620
     1.1517   1.3047   2.9126   5.4509   5.6602   6.0047   6.5337   6.9905

          k = 0.3733 0.0000 0.0000 ( 28660 PWs)   bands (ev):

   -61.8430 -48.5571 -48.5566 -48.5544 -48.5543 -48.5167 -48.5164 -48.5157
   -48.5153 -48.4977 -48.4953 -36.0415 -36.0215 -35.9184 -14.2735 -13.8031
    -5.9136  -4.9777  -4.9338  -4.3067  -3.1106  -2.2920  -1.8386   0.4674
     1.1562   1.3224   2.9233   5.5066   5.7201   6.0714   6.5959   6.9918

          k = 0.3800 0.0000 0.0000 ( 28676 PWs)   bands (ev):

   -61.8425 -48.5571 -48.5565 -48.5544 -48.5542 -48.5167 -48.5164 -48.5157
   -48.5153 -48.4977 -48.4953 -36.0451 -36.0204 -35.9208 -14.2384 -13.7840
    -5.9328  -5.0323  -4.9232  -4.3246  -3.1530  -2.3163  -1.8281   0.4752
     1.1613   1.3401   2.9335   5.5625   5.7806   6.1391   6.6590   6.9475

          k = 0.3867 0.0000 0.0000 ( 28684 PWs)   bands (ev):

   -61.8421 -48.5571 -48.5565 -48.5543 -48.5542 -48.5167 -48.5165 -48.5157
   -48.5153 -48.4976 -48.4953 -36.0485 -36.0193 -35.9233 -14.2034 -13.7651
    -5.9530  -5.0870  -4.9111  -4.3405  -3.1968  -2.3413  -1.8174   0.4853
     1.1668   1.3577   2.9432   5.6183   5.8414   6.2080   6.7229   6.8935

          k = 0.3933 0.0000 0.0000 ( 28686 PWs)   bands (ev):

   -61.8416 -48.5571 -48.5565 -48.5543 -48.5542 -48.5168 -48.5165 -48.5157
   -48.5153 -48.4976 -48.4952 -36.0519 -36.0182 -35.9258 -14.1685 -13.7462
    -5.9739  -5.1416  -4.8978  -4.3545  -3.2417  -2.3670  -1.8065   0.4979
     1.1727   1.3750   2.9525   5.6738   5.9027   6.2778   6.7876   6.8375

          k = 0.4000 0.0000 0.0000 ( 28698 PWs)   bands (ev):

   -61.8412 -48.5570 -48.5564 -48.5542 -48.5541 -48.5168 -48.5165 -48.5156
   -48.5153 -48.4975 -48.4952 -36.0551 -36.0172 -35.9284 -14.1339 -13.7274
    -5.9953  -5.1960  -4.8837  -4.3668  -3.2876  -2.3933  -1.7954   0.5125
     1.1789   1.3919   2.9616   5.7286   5.9642   6.3486   6.7815   6.8530

          k = 0.4067 0.0000 0.0000 ( 28706 PWs)   bands (ev):

   -61.8408 -48.5570 -48.5564 -48.5542 -48.5541 -48.5168 -48.5166 -48.5156
   -48.5153 -48.4975 -48.4951 -36.0581 -36.0161 -35.9310 -14.0996 -13.7088
    -6.0167  -5.2499  -4.8691  -4.3774  -3.3345  -2.4202  -1.7841   0.5292
     1.1853   1.4084   2.9705   5.7822   6.0260   6.4197   6.7271   6.9192

          k = 0.4133 0.0000 0.0000 ( 28690 PWs)   bands (ev):

   -61.8404 -48.5570 -48.5563 -48.5541 -48.5540 -48.5168 -48.5166 -48.5156
   -48.5154 -48.4975 -48.4951 -36.0610 -36.0151 -35.9336 -14.0656 -13.6904
    -6.0379  -5.3033  -4.8542  -4.3865  -3.3823  -2.4477  -1.7726   0.5477
     1.1920   1.4244   2.9793   5.8341   6.0880   6.4900   6.6765   6.9862

          k = 0.4200 0.0000 0.0000 ( 28686 PWs)   bands (ev):

   -61.8400 -48.5570 -48.5563 -48.5541 -48.5540 -48.5169 -48.5166 -48.5156
   -48.5154 -48.4974 -48.4951 -36.0638 -36.0141 -35.9363 -14.0320 -13.6722
    -6.0586  -5.3559  -4.8393  -4.3940  -3.4307  -2.4758  -1.7607   0.5677
     1.1990   1.4396   2.9881   5.8832   6.1502   6.5508   6.6394   7.0539

          k = 0.4267 0.0000 0.0000 ( 28680 PWs)   bands (ev):

   -61.8396 -48.5569 -48.5562 -48.5540 -48.5540 -48.5169 -48.5166 -48.5156
   -48.5154 -48.4974 -48.4950 -36.0665 -36.0132 -35.9389 -13.9988 -13.6541
    -6.0788  -5.4078  -4.8246  -4.4002  -3.4799  -2.5043  -1.7485   0.5889
     1.2065   1.4540   2.9970   5.9280   6.2123   6.5548   6.6646   7.1223

          k = 0.4333 0.0000 0.0000 ( 28700 PWs)   bands (ev):

   -61.8392 -48.5569 -48.5562 -48.5540 -48.5539 -48.5169 -48.5166 -48.5156
   -48.5154 -48.4974 -48.4950 -36.0689 -36.0122 -35.9417 -13.9660 -13.6363
    -6.0980  -5.4588  -4.8102  -4.4050  -3.5297  -2.5333  -1.7359   0.6109
     1.2144   1.4676   3.0062   5.9665   6.2744   6.5230   6.7329   7.1915

          k = 0.4400 0.0000 0.0000 ( 28708 PWs)   bands (ev):

   -61.8388 -48.5569 -48.5562 -48.5540 -48.5539 -48.5170 -48.5167 -48.5156
   -48.5154 -48.4974 -48.4950 -36.0713 -36.0113 -35.9444 -13.9337 -13.6188
    -6.1163  -5.5088  -4.7963  -4.4086  -3.5799  -2.5627  -1.7228   0.6332
     1.2231   1.4801   3.0156   5.9957   6.3365   6.4948   6.8080   7.2614

          k = 0.4467 0.0000 0.0000 ( 28712 PWs)   bands (ev):

   -61.8384 -48.5568 -48.5561 -48.5539 -48.5539 -48.5170 -48.5167 -48.5156
   -48.5155 -48.4973 -48.4949 -36.0734 -36.0104 -35.9472 -13.9020 -13.6016
    -6.1334  -5.5577  -4.7830  -4.4109  -3.6307  -2.5924  -1.7091   0.6555
     1.2327   1.4916   3.0254   6.0125   6.3983   6.4775   6.8851   7.3320

          k = 0.4533 0.0000 0.0000 ( 28702 PWs)   bands (ev):

   -61.8381 -48.5568 -48.5561 -48.5539 -48.5539 -48.5170 -48.5167 -48.5155
   -48.5155 -48.4973 -48.4949 -36.0755 -36.0095 -35.9500 -13.8709 -13.5846
    -6.1493  -5.6056  -4.7705  -4.4120  -3.6818  -2.6225  -1.6948   0.6771
     1.2436   1.5020   3.0357   6.0145   6.4599   6.4740   6.9631   7.4034

          k = 0.4600 0.0000 0.0000 ( 28688 PWs)   bands (ev):

   -61.8377 -48.5568 -48.5560 -48.5539 -48.5539 -48.5170 -48.5167 -48.5155
   -48.5155 -48.4973 -48.4949 -36.0773 -36.0086 -35.9528 -13.8404 -13.5680
    -6.1637  -5.6522  -4.7588  -4.4120  -3.7332  -2.6527  -1.6798   0.6975
     1.2561   1.5111   3.0465   6.0019   6.4839   6.5211   7.0414   7.4755

          k = 0.4667 0.0000 0.0000 ( 28678 PWs)   bands (ev):

   -61.8374 -48.5567 -48.5560 -48.5538 -48.5538 -48.5171 -48.5167 -48.5155
   -48.5155 -48.4972 -48.4948 -36.0790 -36.0078 -35.9556 -13.8106 -13.5518
    -6.1766  -5.6976  -4.7480  -4.4109  -3.7849  -2.6832  -1.6641   0.7161
     1.2707   1.5190   3.0578   5.9775   6.5038   6.5820   7.1192   7.5484

          k = 0.4733 0.0000 0.0000 ( 28678 PWs)   bands (ev):

   -61.8371 -48.5567 -48.5559 -48.5538 -48.5538 -48.5171 -48.5167 -48.5156
   -48.5155 -48.4972 -48.4948 -36.0805 -36.0070 -35.9585 -13.7814 -13.5359
    -6.1879  -5.7417  -4.7382  -4.4088  -3.8367  -2.7139  -1.6476   0.7323
     1.2875   1.5257   3.0698   5.9448   6.5295   6.6423   7.1949   7.6220

          k = 0.4800 0.0000 0.0000 ( 28674 PWs)   bands (ev):

   -61.8367 -48.5566 -48.5559 -48.5538 -48.5538 -48.5171 -48.5168 -48.5156
   -48.5155 -48.4972 -48.4948 -36.0819 -36.0062 -35.9613 -13.7531 -13.5204
    -6.1975  -5.7844  -4.7295  -4.4057  -3.8886  -2.7446  -1.6304   0.7455
     1.3071   1.5310   3.0824   5.9070   6.5565   6.7021   7.2663   7.6196

          k = 0.4867 0.0000 0.0000 ( 28678 PWs)   bands (ev):

   -61.8364 -48.5566 -48.5558 -48.5538 -48.5538 -48.5171 -48.5168 -48.5156
   -48.5155 -48.4972 -48.4947 -36.0831 -36.0054 -35.9642 -13.7256 -13.5053
    -6.2053  -5.8258  -4.7220  -4.4016  -3.9405  -2.7754  -1.6124   0.7555
     1.3295   1.5350   3.0956   5.8662   6.5812   6.7613   7.3287   7.6191

          k = 0.4933 0.0000 0.0000 ( 28676 PWs)   bands (ev):

   -61.8361 -48.5565 -48.5558 -48.5538 -48.5538 -48.5172 -48.5168 -48.5156
   -48.5155 -48.4971 -48.4947 -36.0841 -36.0047 -35.9671 -13.6988 -13.4906
    -6.2112  -5.8657  -4.7156  -4.3967  -3.9921  -2.8061  -1.5936   0.7620
     1.3548   1.5377   3.1095   5.8241   6.6004   6.8198   7.3771   7.6407

          k = 0.5000 0.0000 0.0000 ( 28676 PWs)   bands (ev):

   -61.8359 -48.5565 -48.5557 -48.5538 -48.5537 -48.5172 -48.5168 -48.5156
   -48.5155 -48.4971 -48.4947 -36.0850 -36.0040 -35.9701 -13.6730 -13.4764
    -6.2152  -5.9041  -4.7107  -4.3909  -4.0435  -2.8367  -1.5741   0.7649
     1.3830   1.5391   3.1240   5.7816   6.6117   6.8776   7.4111   7.6874

          k = 0.5067 0.0000 0.0000 ( 28672 PWs)   bands (ev):

   -61.8356 -48.5565 -48.5557 -48.5538 -48.5537 -48.5172 -48.5168 -48.5157
   -48.5155 -48.4971 -48.4947 -36.0857 -36.0034 -35.9730 -13.6481 -13.4627
    -6.2173  -5.9411  -4.7071  -4.3843  -4.0943  -2.8672  -1.5538   0.7643
     1.4138   1.5393   3.1391   5.7394   6.6134   6.9346   7.4385   7.7535

          k = 0.5133 0.0000 0.0000 ( 28682 PWs)   bands (ev):

   -61.8353 -48.5564 -48.5556 -48.5538 -48.5537 -48.5172 -48.5168 -48.5157
   -48.5154 -48.4971 -48.4946 -36.0862 -36.0027 -35.9759 -13.6241 -13.4494
    -6.2174  -5.9765  -4.7052  -4.3769  -4.1445  -2.8975  -1.5330   0.7603
     1.4470   1.5383   3.1547   5.6982   6.6050   6.9909   7.4675   7.8314

          k = 0.5200 0.0000 0.0000 ( 28674 PWs)   bands (ev):

   -61.8351 -48.5564 -48.5556 -48.5538 -48.5537 -48.5173 -48.5168 -48.5157
   -48.5154 -48.4971 -48.4946 -36.0866 -36.0021 -35.9789 -13.6011 -13.4367
    -6.2154  -6.0104  -4.7051  -4.3689  -4.1936  -2.9275  -1.5115   0.7531
     1.4822   1.5362   3.1707   5.6583   6.5869   7.0463   7.5027   7.9163

          k = 0.5267 0.0000 0.0000 ( 28658 PWs)   bands (ev):

   -61.8348 -48.5563 -48.5555 -48.5538 -48.5537 -48.5173 -48.5168 -48.5157
   -48.5154 -48.4970 -48.4946 -36.0868 -36.0015 -35.9819 -13.5790 -13.4245
    -6.2113  -6.0427  -4.7071  -4.3603  -4.2414  -2.9571  -1.4895   0.7432
     1.5189   1.5330   3.1872   5.6201   6.5604   7.1008   7.5453   8.0056

          k = 0.5333 0.0000 0.0000 ( 28674 PWs)   bands (ev):

   -61.8346 -48.5563 -48.5555 -48.5538 -48.5537 -48.5173 -48.5168 -48.5157
   -48.5154 -48.4970 -48.4946 -36.0868 -36.0010 -35.9848 -13.5580 -13.4128
    -6.2052  -6.0735  -4.7115  -4.3512  -4.2874  -2.9862  -1.4672   0.7309
     1.5289   1.5567   3.2039   5.5838   6.5271   7.1544   7.5949   8.0980

          k = 0.5400 0.0000 0.0000 ( 28674 PWs)   bands (ev):

   -61.8344 -48.5562 -48.5554 -48.5539 -48.5537 -48.5173 -48.5168 -48.5158
   -48.5154 -48.4970 -48.4946 -36.0867 -36.0005 -35.9878 -13.5380 -13.4016
    -6.1969  -6.1026  -4.7188  -4.3415  -4.3311  -3.0148  -1.4445   0.7164
     1.5240   1.5953   3.2209   5.5497   6.4887   7.2071   7.6506   8.1927

          k = 0.5467 0.0000 0.0000 ( 28680 PWs)   bands (ev):

   -61.8342 -48.5562 -48.5554 -48.5539 -48.5537 -48.5174 -48.5168 -48.5158
   -48.5154 -48.4970 -48.4945 -36.0864 -36.0000 -35.9907 -13.5191 -13.3910
    -6.1865  -6.1301  -4.7296  -4.3716  -4.3315  -3.0429  -1.4217   0.7001
     1.5182   1.6342   3.2379   5.5180   6.4464   7.2588   7.7114   8.2895

          k = 0.5533 0.0000 0.0000 ( 28708 PWs)   bands (ev):

   -61.8340 -48.5561 -48.5553 -48.5539 -48.5537 -48.5174 -48.5168 -48.5158
   -48.5154 -48.4970 -48.4945 -36.0860 -35.9995 -35.9937 -13.5013 -13.3810
    -6.1740  -6.1560  -4.7446  -4.4085  -4.3212  -3.0702  -1.3988   0.6823
     1.5119   1.6731   3.2550   5.4890   6.4015   7.3095   7.7763   8.3879

          k = 0.5600 0.0000 0.0000 ( 28704 PWs)   bands (ev):

   -61.8338 -48.5561 -48.5553 -48.5539 -48.5538 -48.5174 -48.5168 -48.5158
   -48.5154 -48.4970 -48.4945 -36.0854 -35.9991 -35.9966 -13.4846 -13.3716
    -6.1803  -6.1595  -4.7641  -4.4409  -4.3106  -3.0967  -1.3760   0.6634
     1.5050   1.7116   3.2719   5.4628   6.3548   7.3591   7.8443   8.4878

          k = 0.5667 0.0000 0.0000 ( 28700 PWs)   bands (ev):

[...]

   -61.8345 -48.5570 -48.5561 -48.5531 -48.5531 -48.5171 -48.5171 -48.5156
   -48.5155 -48.4970 -48.4946 -36.1181 -36.0007 -35.9542 -13.5302 -13.4106
    -6.6651  -6.1545  -4.9653  -4.1873  -3.3153  -3.1009  -1.4178   0.8221
     1.5191   2.0445   2.9152   4.6762   7.2469   7.3666   7.8115   8.0988

          k = 0.5750 0.1588 0.0000 ( 28706 PWs)   bands (ev):

   -61.8346 -48.5570 -48.5561 -48.5531 -48.5531 -48.5171 -48.5171 -48.5156
   -48.5155 -48.4970 -48.4946 -36.1189 -36.0008 -35.9526 -13.5342 -13.4133
    -6.6786  -6.1509  -4.9686  -4.1821  -3.2751  -3.0988  -1.4220   0.8279
     1.5074   2.0686   2.9004   4.6641   7.2361   7.3414   7.8474   8.0388

          k = 0.5733 0.1617 0.0000 ( 28692 PWs)   bands (ev):

   -61.8346 -48.5571 -48.5561 -48.5531 -48.5531 -48.5171 -48.5171 -48.5156
   -48.5155 -48.4970 -48.4946 -36.1197 -36.0010 -35.9511 -13.5381 -13.4160
    -6.6919  -6.1474  -4.9720  -4.1768  -3.2350  -3.0969  -1.4263   0.8335
     1.4960   2.0930   2.8857   4.6522   7.2253   7.3144   7.8835   7.9793

          k = 0.5717 0.1645 0.0000 ( 28676 PWs)   bands (ev):

   -61.8347 -48.5571 -48.5561 -48.5531 -48.5530 -48.5171 -48.5171 -48.5156
   -48.5155 -48.4970 -48.4946 -36.1205 -36.0011 -35.9497 -13.5421 -13.4186
    -6.7050  -6.1440  -4.9754  -4.1712  -3.1949  -3.0952  -1.4305   0.8388
     1.4847   2.1177   2.8711   4.6404   7.2146   7.2861   7.9190   7.9204

          k = 0.5700 0.1674 0.0000 ( 28676 PWs)   bands (ev):

   -61.8347 -48.5571 -48.5562 -48.5531 -48.5530 -48.5171 -48.5171 -48.5156
   -48.5155 -48.4970 -48.4946 -36.1213 -36.0012 -35.9482 -13.5459 -13.4213
    -6.7177  -6.1407  -4.9788  -4.1655  -3.1550  -3.0937  -1.4346   0.8439
     1.4737   2.1427   2.8567   4.6288   7.2038   7.2569   7.8621   7.9532

          k = 0.5683 0.1703 0.0000 ( 28676 PWs)   bands (ev):

   -61.8348 -48.5571 -48.5562 -48.5531 -48.5530 -48.5171 -48.5170 -48.5156
   -48.5155 -48.4970 -48.4946 -36.1221 -36.0013 -35.9468 -13.5497 -13.4238
    -6.7302  -6.1375  -4.9823  -4.1596  -3.1152  -3.0923  -1.4388   0.8486
     1.4630   2.1679   2.8424   4.6174   7.1929   7.2271   7.8046   7.9854

          k = 0.5667 0.1732 0.0000 ( 28688 PWs)   bands (ev):

   -61.8348 -48.5572 -48.5562 -48.5530 -48.5530 -48.5171 -48.5170 -48.5157
   -48.5155 -48.4970 -48.4946 -36.1228 -36.0014 -35.9454 -13.5535 -13.4264
    -6.7425  -6.1344  -4.9857  -4.1535  -3.0912  -3.0755  -1.4430   0.8531
     1.4525   2.1932   2.8283   4.6062   7.1818   7.1967   7.7479   8.0150

          k = 0.5650 0.1761 0.0000 ( 28682 PWs)   bands (ev):

   -61.8349 -48.5572 -48.5562 -48.5530 -48.5530 -48.5171 -48.5170 -48.5157
   -48.5154 -48.4970 -48.4946 -36.1236 -36.0015 -35.9440 -13.5572 -13.4289
    -6.7544  -6.1314  -4.9891  -4.1473  -3.0902  -3.0359  -1.4472   0.8573
     1.4422   2.2188   2.8144   4.5951   7.1660   7.1705   7.6922   8.0415

          k = 0.5633 0.1790 0.0000 ( 28682 PWs)   bands (ev):

   -61.8349 -48.5572 -48.5563 -48.5530 -48.5529 -48.5171 -48.5170 -48.5157
   -48.5154 -48.4970 -48.4946 -36.1243 -36.0016 -35.9426 -13.5608 -13.4314
    -6.7661  -6.1285  -4.9925  -4.1410  -3.0893  -2.9966  -1.4515   0.8612
     1.4323   2.2444   2.8008   4.5843   7.1351   7.1589   7.6376   8.0642

          k = 0.5617 0.1819 0.0000 ( 28682 PWs)   bands (ev):

   -61.8349 -48.5573 -48.5563 -48.5530 -48.5529 -48.5171 -48.5170 -48.5157
   -48.5154 -48.4970 -48.4946 -36.1250 -36.0018 -35.9413 -13.5644 -13.4338
    -6.7775  -6.1258  -4.9959  -4.1345  -3.0887  -2.9574  -1.4558   0.8648
     1.4226   2.2701   2.7874   4.5736   7.1040   7.1467   7.5843   8.0828

          k = 0.5600 0.1848 0.0000 ( 28686 PWs)   bands (ev):

   -61.8350 -48.5573 -48.5563 -48.5530 -48.5529 -48.5171 -48.5170 -48.5157
   -48.5154 -48.4970 -48.4946 -36.1257 -36.0019 -35.9400 -13.5679 -13.4362
    -6.7887  -6.1231  -4.9992  -4.1279  -3.0882  -2.9185  -1.4601   0.8681
     1.4132   2.2958   2.7744   4.5630   7.0728   7.1337   7.5325   8.0970

          k = 0.5583 0.1876 0.0000 ( 28682 PWs)   bands (ev):

   -61.8350 -48.5573 -48.5563 -48.5530 -48.5529 -48.5171 -48.5170 -48.5157
   -48.5154 -48.4970 -48.4946 -36.1263 -36.0020 -35.9387 -13.5713 -13.4385
    -6.7995  -6.1206  -5.0026  -4.1213  -3.0879  -2.8799  -1.4645   0.8712
     1.4041   2.3215   2.7618   4.5527   7.0417   7.1198   7.4827   8.1069

          k = 0.5567 0.1905 0.0000 ( 28674 PWs)   bands (ev):

   -61.8351 -48.5573 -48.5564 -48.5530 -48.5529 -48.5171 -48.5169 -48.5157
   -48.5154 -48.4970 -48.4946 -36.1270 -36.0021 -35.9375 -13.5747 -13.4408
    -6.8101  -6.1181  -5.0059  -4.1145  -3.0877  -2.8415  -1.4691   0.8739
     1.3953   2.3470   2.7495   4.5425   7.0107   7.1045   7.4351   8.1125

          k = 0.5550 0.1934 0.0000 ( 28670 PWs)   bands (ev):

   -61.8351 -48.5574 -48.5564 -48.5529 -48.5528 -48.5171 -48.5169 -48.5158
   -48.5154 -48.4970 -48.4946 -36.1276 -36.0022 -35.9362 -13.5780 -13.4431
    -6.8204  -6.1158  -5.0091  -4.1077  -3.0877  -2.8034  -1.4737   0.8763
     1.3869   2.3724   2.7378   4.5326   6.9798   7.0873   7.3903   8.1144

          k = 0.5533 0.1963 0.0000 ( 28650 PWs)   bands (ev):

   -61.8352 -48.5574 -48.5564 -48.5529 -48.5528 -48.5171 -48.5169 -48.5158
   -48.5154 -48.4970 -48.4946 -36.1282 -36.0023 -35.9351 -13.5813 -13.4453
    -6.8304  -6.1135  -5.0123  -4.1008  -3.0878  -2.7656  -1.4784   0.8785
     1.3787   2.3973   2.7268   4.5228   6.9491   7.0677   7.3489   8.1131

          k = 0.5517 0.1992 0.0000 ( 28648 PWs)   bands (ev):

   -61.8352 -48.5574 -48.5564 -48.5529 -48.5528 -48.5171 -48.5169 -48.5158
   -48.5154 -48.4970 -48.4946 -36.1288 -36.0024 -35.9339 -13.5844 -13.4474
    -6.8401  -6.1114  -5.0155  -4.0939  -3.0880  -2.7282  -1.4833   0.8804
     1.3709   2.4217   2.7165   4.5132   6.9187   7.0452   7.3114   8.1091

          k = 0.5500 0.2021 0.0000 ( 28654 PWs)   bands (ev):

   -61.8352 -48.5574 -48.5565 -48.5529 -48.5528 -48.5172 -48.5169 -48.5158
   -48.5154 -48.4970 -48.4946 -36.1294 -36.0025 -35.9328 -13.5875 -13.4495
    -6.8495  -6.1093  -5.0186  -4.0869  -3.0884  -2.6912  -1.4883   0.8820
     1.3634   2.4453   2.7072   4.5038   6.8887   7.0193   7.2784   8.1030

          k = 0.5483 0.2050 0.0000 ( 28664 PWs)   bands (ev):

   -61.8353 -48.5575 -48.5565 -48.5529 -48.5528 -48.5172 -48.5169 -48.5158
   -48.5153 -48.4970 -48.4946 -36.1300 -36.0026 -35.9317 -13.5905 -13.4516
    -6.8586  -6.1074  -5.0216  -4.0800  -3.0889  -2.6545  -1.4935   0.8833
     1.3562   2.4678   2.6993   4.4947   6.8591   6.9899   7.2499   8.0952

          k = 0.5467 0.2078 0.0000 ( 28662 PWs)   bands (ev):

   -61.8353 -48.5575 -48.5565 -48.5529 -48.5528 -48.5172 -48.5168 -48.5158
   -48.5153 -48.4970 -48.4946 -36.1305 -36.0027 -35.9306 -13.5934 -13.4536
    -6.8675  -6.1055  -5.0246  -4.0730  -3.0896  -2.6182  -1.4989   0.8844
     1.3494   2.4888   2.6931   4.4857   6.8299   6.9573   7.2258   8.0863

          k = 0.5450 0.2107 0.0000 ( 28666 PWs)   bands (ev):

   -61.8353 -48.5575 -48.5565 -48.5529 -48.5527 -48.5172 -48.5168 -48.5158
   -48.5153 -48.4970 -48.4946 -36.1311 -36.0027 -35.9296 -13.5962 -13.4555
    -6.8760  -6.1037  -5.0275  -4.0661  -3.0903  -2.5824  -1.5045   0.8853
     1.3429   2.5074   2.6893   4.4769   6.8012   6.9220   7.2056   8.0764

          k = 0.5433 0.2136 0.0000 ( 28670 PWs)   bands (ev):

   -61.8354 -48.5575 -48.5565 -48.5529 -48.5527 -48.5172 -48.5168 -48.5158
   -48.5153 -48.4970 -48.4946 -36.1316 -36.0028 -35.9286 -13.5989 -13.4574
    -6.8843  -6.1021  -5.0303  -4.0592  -3.0911  -2.5470  -1.5103   0.8859
     1.3367   2.5231   2.6887   4.4684   6.7731   6.8847   7.1887   8.0661

          k = 0.5417 0.2165 0.0000 ( 28674 PWs)   bands (ev):

   -61.8354 -48.5575 -48.5566 -48.5529 -48.5527 -48.5172 -48.5168 -48.5159
   -48.5153 -48.4970 -48.4946 -36.1321 -36.0029 -35.9276 -13.6016 -13.4592
    -6.8922  -6.1005  -5.0331  -4.0524  -3.0920  -2.5122  -1.5164   0.8863
     1.3308   2.5348   2.6920   4.4601   6.7457   6.8460   7.1743   8.0553

          k = 0.5400 0.2194 0.0000 ( 28666 PWs)   bands (ev):

   -61.8354 -48.5576 -48.5566 -48.5529 -48.5527 -48.5172 -48.5168 -48.5159
   -48.5153 -48.4970 -48.4946 -36.1325 -36.0030 -35.9267 -13.6042 -13.4610
    -6.8998  -6.0990  -5.0357  -4.0457  -3.0930  -2.4778  -1.5227   0.8864
     1.3253   2.5423   2.6996   4.4520   6.7189   6.8066   7.1620   8.0444

          k = 0.5383 0.2223 0.0000 ( 28674 PWs)   bands (ev):

   -61.8355 -48.5576 -48.5566 -48.5529 -48.5527 -48.5172 -48.5168 -48.5159
   -48.5153 -48.4970 -48.4946 -36.1330 -36.0031 -35.9258 -13.6066 -13.4627
    -6.9072  -6.0975  -5.0383  -4.0390  -3.0941  -2.4439  -1.5292   0.8864
     1.3200   2.5457   2.7114   4.4442   6.6928   6.7670   7.1513   8.0335

          k = 0.5367 0.2252 0.0000 ( 28674 PWs)   bands (ev):

   -61.8355 -48.5576 -48.5566 -48.5528 -48.5527 -48.5172 -48.5167 -48.5159
   -48.5153 -48.4970 -48.4946 -36.1334 -36.0031 -35.9249 -13.6090 -13.4643
    -6.9142  -6.0962  -5.0408  -4.0325  -3.0952  -2.4106  -1.5361   0.8862
     1.3151   2.5457   2.7263   4.4366   6.6675   6.7276   7.1420   8.0227

          k = 0.5350 0.2281 0.0000 ( 28664 PWs)   bands (ev):

   -61.8355 -48.5576 -48.5566 -48.5528 -48.5527 -48.5172 -48.5167 -48.5159
   -48.5153 -48.4970 -48.4946 -36.1338 -36.0032 -35.9241 -13.6113 -13.4658
    -6.9210  -6.0949  -5.0432  -4.0260  -3.0964  -2.3778  -1.5432   0.8859
     1.3105   2.5434   2.7436   4.4292   6.6430   6.6886   7.1336   8.0122

          k = 0.5333 0.2309 0.0000 ( 28668 PWs)   bands (ev):

   -61.8356 -48.5576 -48.5566 -48.5528 -48.5527 -48.5172 -48.5167 -48.5159
   -48.5153 -48.4971 -48.4946 -36.1342 -36.0033 -35.9233 -13.6135 -13.4673
    -6.9274  -6.0937  -5.0456  -4.0198  -3.0976  -2.3456  -1.5507   0.8854
     1.3062   2.5395   2.7623   4.4222   6.6194   6.6503   7.1262   8.0018

          k = 0.5317 0.2338 0.0000 ( 28676 PWs)   bands (ev):

   -61.8356 -48.5576 -48.5566 -48.5528 -48.5526 -48.5172 -48.5167 -48.5159
   -48.5153 -48.4971 -48.4946 -36.1346 -36.0034 -35.9225 -13.6155 -13.4688
    -6.9335  -6.0926  -5.0478  -4.0137  -3.0989  -2.3140  -1.5585   0.8847
     1.3021   2.5346   2.7818   4.4153   6.5967   6.6130   7.1194   7.9918

          k = 0.5300 0.2367 0.0000 ( 28676 PWs)   bands (ev):

   -61.8356 -48.5577 -48.5567 -48.5528 -48.5526 -48.5172 -48.5167 -48.5160
   -48.5153 -48.4971 -48.4946 -36.1350 -36.0034 -35.9218 -13.6175 -13.4701
    -6.9393  -6.0916  -5.0499  -4.0077  -3.1002  -2.2831  -1.5666   0.8840
     1.2984   2.5292   2.8017   4.4088   6.5749   6.5766   7.1133   7.9822

          k = 0.5283 0.2396 0.0000 ( 28672 PWs)   bands (ev):

   -61.8356 -48.5577 -48.5567 -48.5528 -48.5526 -48.5172 -48.5167 -48.5160
   -48.5153 -48.4971 -48.4946 -36.1353 -36.0035 -35.9211 -13.6194 -13.4714
    -6.9448  -6.0906  -5.0519  -4.0020  -3.1015  -2.2528  -1.5751   0.8832
     1.2949   2.5235   2.8215   4.4026   6.5415   6.5541   7.1077   7.9730

          k = 0.5267 0.2425 0.0000 ( 28674 PWs)   bands (ev):

   -61.8357 -48.5577 -48.5567 -48.5528 -48.5526 -48.5172 -48.5166 -48.5160
   -48.5153 -48.4971 -48.4946 -36.1357 -36.0035 -35.9205 -13.6212 -13.4727
    -6.9500  -6.0897  -5.0539  -3.9965  -3.1028  -2.2232  -1.5840   0.8823
     1.2917   2.5177   2.8410   4.3966   6.5078   6.5343   7.1026   7.9643

          k = 0.5250 0.2454 0.0000 ( 28674 PWs)   bands (ev):

   -61.8357 -48.5577 -48.5567 -48.5528 -48.5526 -48.5172 -48.5166 -48.5160
   -48.5153 -48.4971 -48.4946 -36.1360 -36.0036 -35.9198 -13.6229 -13.4738
    -6.9549  -6.0889  -5.0557  -3.9912  -3.1040  -2.1943  -1.5932   0.8814
     1.2887   2.5119   2.8601   4.3909   6.4755   6.5155   7.0980   7.9560

          k = 0.5233 0.2483 0.0000 ( 28678 PWs)   bands (ev):

   -61.8357 -48.5577 -48.5567 -48.5528 -48.5526 -48.5172 -48.5166 -48.5160
   -48.5153 -48.4971 -48.4946 -36.1362 -36.0036 -35.9193 -13.6245 -13.4749
    -6.9595  -6.0881  -5.0574  -3.9862  -3.1053  -2.1661  -1.6028   0.8804
     1.2859   2.5063   2.8785   4.3856   6.4447   6.4978   7.0937   7.9482

          k = 0.5217 0.2511 0.0000 ( 28688 PWs)   bands (ev):

   -61.8357 -48.5577 -48.5567 -48.5528 -48.5526 -48.5172 -48.5166 -48.5160
   -48.5152 -48.4971 -48.4946 -36.1365 -36.0037 -35.9187 -13.6259 -13.4759
    -6.9638  -6.0874  -5.0590  -3.9815  -3.1065  -2.1387  -1.6128   0.8794
     1.2834   2.5010   2.8962   4.3806   6.4156   6.4812   7.0898   7.9409

          k = 0.5200 0.2540 0.0000 ( 28688 PWs)   bands (ev):

   -61.8358 -48.5577 -48.5567 -48.5528 -48.5526 -48.5172 -48.5166 -48.5161
   -48.5152 -48.4971 -48.4946 -36.1367 -36.0037 -35.9182 -13.6273 -13.4769
    -6.9677  -6.0867  -5.0605  -3.9770  -3.1077  -2.1120  -1.6232   0.8784
     1.2811   2.4958   2.9130   4.3759   6.3883   6.4658   7.0863   7.9341

          k = 0.5183 0.2569 0.0000 ( 28668 PWs)   bands (ev):

   -61.8358 -48.5577 -48.5567 -48.5528 -48.5526 -48.5172 -48.5166 -48.5161
   -48.5152 -48.4971 -48.4946 -36.1370 -36.0038 -35.9178 -13.6286 -13.4777
    -6.9714  -6.0861  -5.0619  -3.9728  -3.1088  -2.0862  -1.6339   0.8774
     1.2790   2.4910   2.9289   4.3715   6.3628   6.4515   7.0831   7.9279

          k = 0.5167 0.2598 0.0000 ( 28672 PWs)   bands (ev):

   -61.8358 -48.5578 -48.5567 -48.5528 -48.5526 -48.5172 -48.5166 -48.5161
   -48.5152 -48.4971 -48.4946 -36.1372 -36.0038 -35.9174 -13.6297 -13.4785
    -6.9747  -6.0856  -5.0631  -3.9689  -3.1099  -2.0613  -1.6449   0.8765
     1.2772   2.4866   2.9437   4.3675   6.3392   6.4383   7.0802   7.9221

          k = 0.5150 0.2627 0.0000 ( 28676 PWs)   bands (ev):

   -61.8358 -48.5578 -48.5567 -48.5528 -48.5526 -48.5172 -48.5165 -48.5161
   -48.5152 -48.4971 -48.4946 -36.1374 -36.0038 -35.9170 -13.6308 -13.4793
    -6.9777  -6.0851  -5.0643  -3.9654  -3.1109  -2.0374  -1.6563   0.8756
     1.2755   2.4825   2.9574   4.3639   6.3176   6.4264   7.0776   7.9169

          k = 0.5133 0.2656 0.0000 ( 28680 PWs)   bands (ev):

   -61.8358 -48.5578 -48.5568 -48.5528 -48.5526 -48.5172 -48.5165 -48.5161
   -48.5152 -48.4971 -48.4946 -36.1375 -36.0039 -35.9167 -13.6317 -13.4799
    -6.9804  -6.0847  -5.0653  -3.9622  -3.1118  -2.0145  -1.6678   0.8747
     1.2740   2.4788   2.9698   4.3606   6.2981   6.4157   7.0753   7.9123

          k = 0.5117 0.2685 0.0000 ( 28688 PWs)   bands (ev):

   -61.8358 -48.5578 -48.5568 -48.5528 -48.5526 -48.5172 -48.5165 -48.5161
   -48.5152 -48.4971 -48.4946 -36.1377 -36.0039 -35.9164 -13.6325 -13.4805
    -6.9828  -6.0843  -5.0662  -3.9593  -3.1126  -1.9928  -1.6795   0.8740
     1.2727   2.4755   2.9809   4.3577   6.2807   6.4061   7.0733   7.9082

          k = 0.5100 0.2714 0.0000 ( 28686 PWs)   bands (ev):

   -61.8358 -48.5578 -48.5568 -48.5528 -48.5526 -48.5172 -48.5165 -48.5161
   -48.5152 -48.4971 -48.4946 -36.1378 -36.0039 -35.9161 -13.6333 -13.4810
    -6.9848  -6.0840  -5.0670  -3.9568  -3.1134  -1.9724  -1.6911   0.8733
     1.2716   2.4726   2.9907   4.3552   6.2654   6.3979   7.0716   7.9046

          k = 0.5083 0.2742 0.0000 ( 28690 PWs)   bands (ev):

   -61.8358 -48.5578 -48.5568 -48.5528 -48.5526 -48.5172 -48.5165 -48.5161
   -48.5152 -48.4971 -48.4946 -36.1379 -36.0039 -35.9159 -13.6339 -13.4814
    -6.9866  -6.0837  -5.0677  -3.9547  -3.1140  -1.9536  -1.7025   0.8727
     1.2707   2.4701   2.9991   4.3530   6.2525   6.3909   7.0701   7.9016

          k = 0.5067 0.2771 0.0000 ( 28694 PWs)   bands (ev):

   -61.8358 -48.5578 -48.5568 -48.5528 -48.5525 -48.5172 -48.5165 -48.5161
   -48.5152 -48.4971 -48.4946 -36.1380 -36.0039 -35.9157 -13.6344 -13.4817
    -6.9880  -6.0835  -5.0682  -3.9530  -3.1145  -1.9367  -1.7133   0.8722
     1.2700   2.4681   3.0060   4.3512   6.2418   6.3851   7.0690   7.8991

          k = 0.5050 0.2800 0.0000 ( 28696 PWs)   bands (ev):

   -61.8359 -48.5578 -48.5568 -48.5528 -48.5525 -48.5172 -48.5165 -48.5161
   -48.5152 -48.4971 -48.4946 -36.1381 -36.0040 -35.9156 -13.6348 -13.4820
    -6.9891  -6.0833  -5.0687  -3.9516  -3.1149  -1.9223  -1.7230   0.8718
     1.2694   2.4665   3.0115   4.3498   6.2335   6.3806   7.0680   7.8972

          k = 0.5033 0.2829 0.0000 ( 28708 PWs)   bands (ev):

   -61.8359 -48.5578 -48.5568 -48.5528 -48.5525 -48.5172 -48.5165 -48.5161
   -48.5152 -48.4971 -48.4946 -36.1381 -36.0040 -35.9155 -13.6350 -13.4822
    -6.9899  -6.0832  -5.0690  -3.9506  -3.1152  -1.9110  -1.7308   0.8715
     1.2690   2.4654   3.0154   4.3488   6.2275   6.3774   7.0674   7.8958

          k = 0.5017 0.2858 0.0000 ( 28712 PWs)   bands (ev):

   -61.8359 -48.5578 -48.5568 -48.5528 -48.5525 -48.5172 -48.5165 -48.5162
   -48.5152 -48.4971 -48.4946 -36.1382 -36.0040 -35.9154 -13.6352 -13.4823
    -6.9904  -6.0831  -5.0692  -3.9500  -3.1154  -1.9038  -1.7361   0.8713
     1.2687   2.4647   3.0177   4.3482   6.2239   6.3755   7.0670   7.8949

          k = 0.5000 0.2887 0.0000 ( 28720 PWs)   bands (ev):

   -61.8359 -48.5578 -48.5568 -48.5528 -48.5525 -48.5172 -48.5165 -48.5162
   -48.5152 -48.4971 -48.4946 -36.1382 -36.0040 -35.9154 -13.6353 -13.4824
    -6.9905  -6.0831  -5.0692  -3.9498  -3.1155  -1.9012  -1.7379   0.8713
     1.2686   2.4645   3.0185   4.3481   6.2227   6.3749   7.0669   7.8947

     Writing output data file ./mose2.save/
 
     init_run     :      0.45s CPU      0.51s WALL (       1 calls)
     electrons    :     90.66s CPU     92.77s WALL (       1 calls)

     Called by init_run:
     wfcinit      :      0.00s CPU      0.01s WALL (       1 calls)
     wfcinit:atom :      0.05s CPU      0.07s WALL (      51 calls)
     wfcinit:wfcr :      2.53s CPU      2.61s WALL (      51 calls)
     potinit      :      0.08s CPU      0.11s WALL (       1 calls)
     hinit0       :      0.27s CPU      0.27s WALL (       1 calls)

     Called by electrons:
     c_bands      :     90.66s CPU     92.75s WALL (       1 calls)
     v_of_rho     :      0.03s CPU      0.04s WALL (       1 calls)
     v_h          :      0.00s CPU      0.00s WALL (       1 calls)
     v_xc         :      0.03s CPU      0.03s WALL (       1 calls)
     newd         :      0.04s CPU      0.04s WALL (       1 calls)
     PAW_pot      :      0.05s CPU      0.05s WALL (       1 calls)

     Called by c_bands:
     init_us_2    :      0.06s CPU      0.07s WALL (      51 calls)
     cegterg      :     75.37s CPU     77.01s WALL (     152 calls)

     Called by sum_band:

     Called by *egterg:
     cdiaghg      :      6.72s CPU      6.84s WALL (    2465 calls)
     cegterg:over :      4.92s CPU      5.02s WALL (    2414 calls)
     cegterg:upda :      3.27s CPU      3.34s WALL (    2414 calls)
     cegterg:last :      9.19s CPU      9.33s WALL (    1167 calls)
     cdiaghg:chol :      0.46s CPU      0.47s WALL (    2465 calls)
     cdiaghg:inve :      0.31s CPU      0.32s WALL (    2465 calls)
     cdiaghg:para :      0.46s CPU      0.47s WALL (    4930 calls)
     h_psi        :     49.68s CPU     50.91s WALL (    2617 calls)
     s_psi        :      2.14s CPU      2.18s WALL (    2617 calls)
     g_psi        :      0.34s CPU      0.34s WALL (    2414 calls)

     Called by h_psi:
     h_psi:calbec :      2.13s CPU      2.18s WALL (    2617 calls)
     vloc_psi     :     44.74s CPU     45.86s WALL (    2617 calls)
     add_vuspsi   :      2.40s CPU      2.45s WALL (    2617 calls)

     General routines
     calbec       :      2.12s CPU      2.17s WALL (    2617 calls)
     fft          :      0.03s CPU      0.03s WALL (      12 calls)
     fftw         :     38.41s CPU     39.37s WALL (   76516 calls)
     davcio       :      0.03s CPU      0.33s WALL (     102 calls)
 
     Parallel routines
     fft_scatt_xy :      6.64s CPU      6.82s WALL (   76528 calls)
     fft_scatt_yz :     13.35s CPU     13.69s WALL (   76528 calls)

     PAW routines
     PAW_pot      :      0.05s CPU      0.05s WALL (       1 calls)
 
     PWSCF        :   1m34.79s CPU   1m39.38s WALL

 
   This run was terminated on:  22:29: 4  13Jun2022            

=------------------------------------------------------------------------------=
   JOB DONE.
=------------------------------------------------------------------------------=
