
     Program BANDS v.6.6 starts on 13Jun2022 at 22:29: 6 

     This program is part of the open-source Quantum ESPRESSO suite
     for quantum simulation of materials; please cite
         "P. Giannozzi et al., J. Phys.:Condens. Matter 21 395502 (2009);
         "P. Giannozzi et al., J. Phys.:Condens. Matter 29 465901 (2017);
          URL http://www.quantum-espresso.org", 
     in publications or presentations arising from this work. More details at
     http://www.quantum-espresso.org/quote

     Parallel version (MPI), running on    40 processors

     MPI processes distributed on     1 nodes
     R & G space division:  proc/nbgrp/npool/nimage =      40
     Fft bands division:     nmany     =       1

     Reading xml data from directory:

     ./mose2.save/
     file Mo.pbesol-spn-kjpaw_psl.1.0.0.UPF: wavefunction(s)  4S 4D renormalized
     file Se.pbesol-dn-kjpaw_psl.1.0.0.UPF: wavefunction(s)  4S 4P 3D renormalized

     IMPORTANT: XC functional enforced from input :
     Exchange-correlation= PBESOL
                           (   1   4  10   8   0   0   0)
     Any further DFT definition will be discarded
     Please, verify this is what you really want

 
     Parallelization info
     --------------------
     sticks:   dense  smooth     PW     G-vecs:    dense   smooth      PW
     Min          26      26      7                 5708     5708     857
     Max          27      27      9                 5743     5743     894
     Sum        1069    1069    313               229233   229233   34911
 

     negative rho (up, down):  1.202E-04 0.000E+00
     Reading collected, re-writing distributed wavefunctions
     high-symmetry point:  0.0000 0.0000 0.0000   x coordinate   0.0000
     high-symmetry point:  0.6667 0.0000 0.0000   x coordinate   0.6667
     high-symmetry point:  0.5000 0.2887 0.0000   x coordinate   1.0000

     Plottable bands (eV) written to file seg2.dat.gnu
     Bands written to file seg2.dat

 **************************************************************************

                    xk=(   0.00000,   0.00000,   0.00000  )

     point group D_3h (-62m)
     there are  6 classes
     the character table:

       E     2C3   3C2   s_h   2S3   3s_v 
A'_1   1.00  1.00  1.00  1.00  1.00  1.00
A'_2   1.00  1.00 -1.00  1.00  1.00 -1.00
E'     2.00 -1.00  0.00  2.00 -1.00  0.00
A''1   1.00  1.00  1.00 -1.00 -1.00 -1.00
A''2   1.00  1.00 -1.00 -1.00 -1.00  1.00
E''    2.00 -1.00  0.00 -2.00  1.00  0.00

     the symmetry operations in each class and the name of the first element:

     E        1
                                                                 
     2C3      3    4
                                                                 
     3C2      2    6    5
                                                                 
     s_h      7
                                                                 
     2S3      9   10
                                                                 
     3s_v     8   11   12
                                                                 

     Band symmetry, D_3h (-62m) point group:

     e(  1 -  1) =    -61.86220  eV     1   --> A'_1           
     e(  2 -  3) =    -48.55761  eV     2   --> E'             
     e(  4 -  5) =    -48.55723  eV     2   --> E''            
     e(  6 -  7) =    -48.51575  eV     2   --> E'             
     e(  8 -  9) =    -48.51476  eV     2   --> E''            
     e( 10 - 10) =    -48.49931  eV     1   --> A'_1           
     e( 11 - 11) =    -48.49714  eV     1   --> A''2           
     e( 12 - 12) =    -36.06893  eV     1   --> A''2           
     e( 13 - 14) =    -35.84890  eV     2   --> E'             
     e( 15 - 15) =    -15.53233  eV     1   --> A'_1           
     e( 16 - 16) =    -14.48895  eV     1   --> A''2           
     e( 17 - 17) =     -6.72119  eV     1   --> A'_1           
     e( 18 - 19) =     -3.29423  eV     2   --> E'             
     e( 20 - 20) =     -3.10139  eV     1   --> A''2           
     e( 21 - 22) =     -2.26510  eV     2   --> E''            
     e( 23 - 23) =     -1.50969  eV     1   --> A'_1           
     e( 24 - 25) =      1.84229  eV     2   --> E''            
     e( 26 - 27) =      2.09447  eV     2   --> E'             
     e( 28 - 28) =      3.60411  eV     1   --> A'_1           
     e( 29 - 29) =      3.84821  eV     1   --> A''2           
     e( 30 - 30) =      4.10962  eV     1   --> A'_1           
     e( 31 - 31) =      4.72353  eV     1   --> A''2           
     e( 32 - 32) =      4.86167  eV     1   --> A'_1           

 **************************************************************************

 **************************************************************************

                    xk=(   0.00667,   0.00000,   0.00000  )

     point group C_s (m)    
     there are  2 classes
     the character table:

       E     s    
A'     1.00  1.00
A''    1.00 -1.00

     the symmetry operations in each class and the name of the first element:

     E        1
                                                                 
     s        2
                                                                 

     Band symmetry, C_s (m)     point group:

     e(  1 -  1) =    -61.86219  eV     1   --> A'             
     e(  2 -  3) =    -48.55761  eV     2   -->   2 A'             
     e(  4 -  5) =    -48.55723  eV     2   -->   2 A''            
     e(  6 -  7) =    -48.51575  eV     2   -->   2 A'             
     e(  8 -  9) =    -48.51476  eV     2   -->   2 A''            
     e( 10 - 10) =    -48.49931  eV     1   --> A'             
     e( 11 - 11) =    -48.49714  eV     1   --> A''            
     e( 12 - 12) =    -36.06891  eV     1   --> A''            
     e( 13 - 14) =    -35.84900  eV     2   -->   2 A'             
     e( 15 - 15) =    -15.53185  eV     1   --> A'             
     e( 16 - 16) =    -14.48868  eV     1   --> A''            
     e( 17 - 17) =     -6.72059  eV     1   --> A'             
     e( 18 - 18) =     -3.29553  eV     1   --> A'             
     e( 19 - 19) =     -3.29374  eV     1   --> A'             
     e( 20 - 20) =     -3.10312  eV     1   --> A''            
     e( 21 - 21) =     -2.26594  eV     1   --> A''            
     e( 22 - 22) =     -2.26404  eV     1   --> A''            
     e( 23 - 23) =     -1.50976  eV     1   --> A'             
     e( 24 - 24) =      1.84048  eV     1   --> A''            
     e( 25 - 25) =      1.84307  eV     1   --> A''            
     e( 26 - 26) =      2.09160  eV     1   --> A'             
     e( 27 - 27) =      2.09368  eV     1   --> A'             
     e( 28 - 28) =      3.60550  eV     1   --> A'             
     e( 29 - 29) =      3.84888  eV     1   --> A''            
     e( 30 - 30) =      4.11048  eV     1   --> A'             
     e( 31 - 31) =      4.72417  eV     1   --> A''            
     e( 32 - 32) =      4.86366  eV     1   --> A'             

 **************************************************************************

 **************************************************************************

                    xk=(   0.01333,   0.00000,   0.00000  )

     Band symmetry, C_s (m)     point group:

     e(  1 -  1) =    -61.86216  eV     1   --> A'             
     e(  2 -  3) =    -48.55761  eV     2   -->   2 A'             
     e(  4 -  5) =    -48.55723  eV     2   -->   2 A''            
     e(  6 -  7) =    -48.51575  eV     2   -->   2 A'             
     e(  8 -  9) =    -48.51476  eV     2   -->   2 A''            
     e( 10 - 10) =    -48.49931  eV     1   --> A'             
     e( 11 - 11) =    -48.49714  eV     1   --> A''            
     e( 12 - 12) =    -36.06884  eV     1   --> A''            
     e( 13 - 13) =    -35.84929  eV     1   --> A'             
     e( 14 - 14) =    -35.84899  eV     1   --> A'             
     e( 15 - 15) =    -15.53040  eV     1   --> A'             
     e( 16 - 16) =    -14.48789  eV     1   --> A''            
     e( 17 - 17) =     -6.71880  eV     1   --> A'             
     e( 18 - 18) =     -3.29942  eV     1   --> A'             
     e( 19 - 19) =     -3.29226  eV     1   --> A'             
     e( 20 - 20) =     -3.10828  eV     1   --> A''            
     e( 21 - 21) =     -2.26846  eV     1   --> A''            
     e( 22 - 22) =     -2.26090  eV     1   --> A''            
     e( 23 - 23) =     -1.50997  eV     1   --> A'             
     e( 24 - 24) =      1.83510  eV     1   --> A''            
     e( 25 - 25) =      1.84541  eV     1   --> A''            
     e( 26 - 26) =      2.08306  eV     1   --> A'             
     e( 27 - 27) =      2.09131  eV     1   --> A'             
     e( 28 - 28) =      3.60965  eV     1   --> A'             
     e( 29 - 29) =      3.85088  eV     1   --> A''            
     e( 30 - 30) =      4.11303  eV     1   --> A'             
     e( 31 - 31) =      4.72610  eV     1   --> A''            
     e( 32 - 32) =      4.86959  eV     1   --> A'             

 **************************************************************************

 **************************************************************************

                    xk=(   0.02000,   0.00000,   0.00000  )

     Band symmetry, C_s (m)     point group:

     e(  1 -  1) =    -61.86212  eV     1   --> A'             
     e(  2 -  3) =    -48.55761  eV     2   -->   2 A'             
     e(  4 -  5) =    -48.55723  eV     2   -->   2 A''            
     e(  6 -  7) =    -48.51575  eV     2   -->   2 A'             
     e(  8 -  9) =    -48.51476  eV     2   -->   2 A''            
     e( 10 - 10) =    -48.49930  eV     1   --> A'             
     e( 11 - 11) =    -48.49713  eV     1   --> A''            
     e( 12 - 12) =    -36.06874  eV     1   --> A''            
     e( 13 - 13) =    -35.84978  eV     1   --> A'             
     e( 14 - 14) =    -35.84910  eV     1   --> A'             
     e( 15 - 15) =    -15.52798  eV     1   --> A'             
     e( 16 - 16) =    -14.48657  eV     1   --> A''            
     e( 17 - 17) =     -6.71581  eV     1   --> A'             
     e( 18 - 18) =     -3.30588  eV     1   --> A'             
     e( 19 - 19) =     -3.28980  eV     1   --> A'             
     e( 20 - 20) =     -3.11676  eV     1   --> A''            
     e( 21 - 21) =     -2.27268  eV     1   --> A''            
     e( 22 - 22) =     -2.25578  eV     1   --> A''            
     e( 23 - 23) =     -1.51034  eV     1   --> A'             
     e( 24 - 24) =      1.82622  eV     1   --> A''            
     e( 25 - 25) =      1.84930  eV     1   --> A''            
     e( 26 - 26) =      2.06901  eV     1   --> A'             
     e( 27 - 27) =      2.08737  eV     1   --> A'             
     e( 28 - 28) =      3.61643  eV     1   --> A'             
     e( 29 - 29) =      3.85421  eV     1   --> A''            
     e( 30 - 30) =      4.11726  eV     1   --> A'             
     e( 31 - 31) =      4.72931  eV     1   --> A''            
     e( 32 - 32) =      4.87940  eV     1   --> A'             

 **************************************************************************

 **************************************************************************

                    xk=(   0.02667,   0.00000,   0.00000  )

     Band symmetry, C_s (m)     point group:

     e(  1 -  1) =    -61.86206  eV     1   --> A'             
     e(  2 -  3) =    -48.55760  eV     2   -->   2 A'             
     e(  4 -  5) =    -48.55724  eV     2   -->   2 A''            
     e(  6 -  7) =    -48.51576  eV     2   -->   2 A'             
     e(  8 -  9) =    -48.51477  eV     2   -->   2 A''            
     e( 10 - 10) =    -48.49930  eV     1   --> A'             
     e( 11 - 11) =    -48.49713  eV     1   --> A''            
     e( 12 - 12) =    -36.06859  eV     1   --> A''            
     e( 13 - 13) =    -35.85046  eV     1   --> A'             
     e( 14 - 14) =    -35.84926  eV     1   --> A'             
     e( 15 - 15) =    -15.52460  eV     1   --> A'             
     e( 16 - 16) =    -14.48472  eV     1   --> A''            
     e( 17 - 17) =     -6.71164  eV     1   --> A'             
     e( 18 - 18) =     -3.31489  eV     1   --> A'             
     e( 19 - 19) =     -3.28636  eV     1   --> A'             
     e( 20 - 20) =     -3.12842  eV     1   --> A''            
     e( 21 - 21) =     -2.27859  eV     1   --> A''            
     e( 22 - 22) =     -2.24881  eV     1   --> A''            
     e( 23 - 23) =     -1.51086  eV     1   --> A'             
     e( 24 - 24) =      1.81395  eV     1   --> A''            
     e( 25 - 25) =      1.85473  eV     1   --> A''            
     e( 26 - 26) =      2.04973  eV     1   --> A'             
     e( 27 - 27) =      2.08185  eV     1   --> A'             
     e( 28 - 28) =      3.62566  eV     1   --> A'             
     e( 29 - 29) =      3.85886  eV     1   --> A''            
     e( 30 - 30) =      4.12313  eV     1   --> A'             
     e( 31 - 31) =      4.73380  eV     1   --> A''            
     e( 32 - 32) =      4.89300  eV     1   --> A'             

 **************************************************************************

 **************************************************************************

                    xk=(   0.03333,   0.00000,   0.00000  )

     Band symmetry, C_s (m)     point group:

     e(  1 -  1) =    -61.86198  eV     1   --> A'             
     e(  2 -  3) =    -48.55760  eV     2   -->   2 A'             
     e(  4 -  5) =    -48.55724  eV     2   -->   2 A''            
     e(  6 -  7) =    -48.51576  eV     2   -->   2 A'             
     e(  8 -  9) =    -48.51477  eV     2   -->   2 A''            
     e( 10 - 10) =    -48.49929  eV     1   --> A'             
     e( 11 - 11) =    -48.49712  eV     1   --> A''            
     e( 12 - 12) =    -36.06840  eV     1   --> A''            
     e( 13 - 13) =    -35.85133  eV     1   --> A'             
     e( 14 - 14) =    -35.84946  eV     1   --> A'             
     e( 15 - 15) =    -15.52025  eV     1   --> A'             
     e( 16 - 16) =    -14.48234  eV     1   --> A''            
     e( 17 - 17) =     -6.70628  eV     1   --> A'             
     e( 18 - 18) =     -3.32643  eV     1   --> A'             
     e( 19 - 19) =     -3.28195  eV     1   --> A'             
     e( 20 - 20) =     -3.14304  eV     1   --> A''            
     e( 21 - 21) =     -2.28623  eV     1   --> A''            
     e( 22 - 22) =     -2.24021  eV     1   --> A''            
     e( 23 - 23) =     -1.51156  eV     1   --> A'             
     e( 24 - 24) =      1.79848  eV     1   --> A''            
     e( 25 - 25) =      1.86168  eV     1   --> A''            
     e( 26 - 26) =      2.02558  eV     1   --> A'             
     e( 27 - 27) =      2.07478  eV     1   --> A'             
     e( 28 - 28) =      3.63712  eV     1   --> A'             
     e( 29 - 29) =      3.86483  eV     1   --> A''            
     e( 30 - 30) =      4.13060  eV     1   --> A'             
     e( 31 - 31) =      4.73956  eV     1   --> A''            
     e( 32 - 32) =      4.91025  eV     1   --> A'             

 **************************************************************************

 **************************************************************************

                    xk=(   0.04000,   0.00000,   0.00000  )

     Band symmetry, C_s (m)     point group:

     e(  1 -  1) =    -61.86188  eV     1   --> A'             
     e(  2 -  3) =    -48.55760  eV     2   -->   2 A'             
     e(  4 -  5) =    -48.55724  eV     2   -->   2 A''            
     e(  6 -  7) =    -48.51576  eV     2   -->   2 A'             
     e(  8 -  9) =    -48.51478  eV     2   -->   2 A''            
     e( 10 - 10) =    -48.49928  eV     1   --> A'             
     e( 11 - 11) =    -48.49711  eV     1   --> A''            
     e( 12 - 12) =    -36.06817  eV     1   --> A''            
     e( 13 - 13) =    -35.85240  eV     1   --> A'             
     e( 14 - 14) =    -35.84970  eV     1   --> A'             
     e( 15 - 15) =    -15.51495  eV     1   --> A'             
     e( 16 - 16) =    -14.47944  eV     1   --> A''            
     e( 17 - 17) =     -6.69974  eV     1   --> A'             
     e( 18 - 18) =     -3.34045  eV     1   --> A'             
     e( 19 - 19) =     -3.27657  eV     1   --> A'             
     e( 20 - 20) =     -3.16041  eV     1   --> A''            
     e( 21 - 21) =     -2.29559  eV     1   --> A''            
     e( 22 - 22) =     -2.23018  eV     1   --> A''            
     e( 23 - 23) =     -1.51244  eV     1   --> A'             
     e( 24 - 24) =      1.78000  eV     1   --> A''            
     e( 25 - 25) =      1.87014  eV     1   --> A''            
     e( 26 - 26) =      1.99697  eV     1   --> A'             
     e( 27 - 27) =      2.06615  eV     1   --> A'             
     e( 28 - 28) =      3.65056  eV     1   --> A'             
     e( 29 - 29) =      3.87211  eV     1   --> A''            
     e( 30 - 30) =      4.13961  eV     1   --> A'             
     e( 31 - 31) =      4.74660  eV     1   --> A''            
     e( 32 - 32) =      4.93094  eV     1   --> A'             

 **************************************************************************

 **************************************************************************

                    xk=(   0.04667,   0.00000,   0.00000  )

     Band symmetry, C_s (m)     point group:

     e(  1 -  1) =    -61.86178  eV     1   --> A'             
     e(  2 -  3) =    -48.55759  eV     2   -->   2 A'             
     e(  4 -  5) =    -48.55724  eV     2   -->   2 A''            
     e(  6 -  7) =    -48.51577  eV     2   -->   2 A'             
     e(  8 -  9) =    -48.51479  eV     2   -->   2 A''            
     e( 10 - 10) =    -48.49927  eV     1   --> A'             
     e( 11 - 11) =    -48.49710  eV     1   --> A''            
     e( 12 - 12) =    -36.06789  eV     1   --> A''            
     e( 13 - 13) =    -35.85365  eV     1   --> A'             
     e( 14 - 14) =    -35.84998  eV     1   --> A'             
     e( 15 - 15) =    -15.50869  eV     1   --> A'             
     e( 16 - 16) =    -14.47602  eV     1   --> A''            
     e( 17 - 17) =     -6.69204  eV     1   --> A'             
     e( 18 - 18) =     -3.35690  eV     1   --> A'             
     e( 19 - 19) =     -3.27023  eV     1   --> A'             
     e( 20 - 20) =     -3.18028  eV     1   --> A''            
     e( 21 - 21) =     -2.30672  eV     1   --> A''            
     e( 22 - 22) =     -2.21895  eV     1   --> A''            
     e( 23 - 23) =     -1.51354  eV     1   --> A'             
     e( 24 - 24) =      1.75875  eV     1   --> A''            
     e( 25 - 25) =      1.88006  eV     1   --> A''            
     e( 26 - 26) =      1.96434  eV     1   --> A'             
     e( 27 - 27) =      2.05598  eV     1   --> A'             
     e( 28 - 28) =      3.66574  eV     1   --> A'             
     e( 29 - 29) =      3.88069  eV     1   --> A''            
     e( 30 - 30) =      4.15012  eV     1   --> A'             
     e( 31 - 31) =      4.75491  eV     1   --> A''            
     e( 32 - 32) =      4.95485  eV     1   --> A'             

 **************************************************************************

 **************************************************************************

                    xk=(   0.05333,   0.00000,   0.00000  )

     Band symmetry, C_s (m)     point group:

     e(  1 -  1) =    -61.86165  eV     1   --> A'             
     e(  2 -  3) =    -48.55759  eV     2   -->   2 A'             
     e(  4 -  4) =    -48.55724  eV     1   --> A''            
     e(  5 -  5) =    -48.55713  eV     1   --> A''            
     e(  6 -  7) =    -48.51577  eV     2   -->   2 A'             
     e(  8 -  9) =    -48.51481  eV     2   -->   2 A''            
     e( 10 - 10) =    -48.49926  eV     1   --> A'             
     e( 11 - 11) =    -48.49709  eV     1   --> A''            
     e( 12 - 12) =    -36.06758  eV     1   --> A''            
     e( 13 - 13) =    -35.85509  eV     1   --> A'             
     e( 14 - 14) =    -35.85031  eV     1   --> A'             
     e( 15 - 15) =    -15.50147  eV     1   --> A'             
     e( 16 - 16) =    -14.47207  eV     1   --> A''            
     e( 17 - 17) =     -6.68318  eV     1   --> A'             
     e( 18 - 18) =     -3.37573  eV     1   --> A'             
     e( 19 - 19) =     -3.26293  eV     1   --> A'             
     e( 20 - 20) =     -3.20240  eV     1   --> A''            
     e( 21 - 21) =     -2.31964  eV     1   --> A''            
     e( 22 - 22) =     -2.20676  eV     1   --> A''            
     e( 23 - 23) =     -1.51488  eV     1   --> A'             
     e( 24 - 24) =      1.73502  eV     1   --> A''            
     e( 25 - 25) =      1.89143  eV     1   --> A''            
     e( 26 - 26) =      1.92815  eV     1   --> A'             
     e( 27 - 27) =      2.04429  eV     1   --> A'             
     e( 28 - 28) =      3.68242  eV     1   --> A'             
     e( 29 - 29) =      3.89055  eV     1   --> A''            
     e( 30 - 30) =      4.16204  eV     1   --> A'             
     e( 31 - 31) =      4.76447  eV     1   --> A''            
     e( 32 - 32) =      4.98170  eV     1   --> A'             

 **************************************************************************

 **************************************************************************

                    xk=(   0.06000,   0.00000,   0.00000  )

     Band symmetry, C_s (m)     point group:

     e(  1 -  1) =    -61.86150  eV     1   --> A'             
     e(  2 -  2) =    -48.55758  eV     1   --> A'             
     e(  3 -  3) =    -48.55748  eV     1   --> A'             
     e(  4 -  4) =    -48.55724  eV     1   --> A''            
     e(  5 -  5) =    -48.55711  eV     1   --> A''            
     e(  6 -  7) =    -48.51577  eV     2   -->   2 A'             
     e(  8 -  9) =    -48.51482  eV     2   -->   2 A''            
     e( 10 - 10) =    -48.49925  eV     1   --> A'             
     e( 11 - 11) =    -48.49707  eV     1   --> A''            
     e( 12 - 12) =    -36.06722  eV     1   --> A''            
     e( 13 - 13) =    -35.85671  eV     1   --> A'             
     e( 14 - 14) =    -35.85069  eV     1   --> A'             
     e( 15 - 15) =    -15.49331  eV     1   --> A'             
     e( 16 - 16) =    -14.46761  eV     1   --> A''            
     e( 17 - 17) =     -6.67317  eV     1   --> A'             
     e( 18 - 18) =     -3.39688  eV     1   --> A'             
     e( 19 - 19) =     -3.25470  eV     1   --> A'             
     e( 20 - 20) =     -3.22654  eV     1   --> A''            
     e( 21 - 21) =     -2.33437  eV     1   --> A''            
     e( 22 - 22) =     -2.19382  eV     1   --> A''            
     e( 23 - 23) =     -1.51649  eV     1   --> A'             
     e( 24 - 24) =      1.70908  eV     1   --> A''            
     e( 25 - 25) =      1.88886  eV     1   --> A'             
     e( 26 - 26) =      1.90420  eV     1   --> A''            
     e( 27 - 27) =      2.03109  eV     1   --> A'             
     e( 28 - 28) =      3.70041  eV     1   --> A'             
     e( 29 - 29) =      3.90170  eV     1   --> A''            
     e( 30 - 30) =      4.17533  eV     1   --> A'             
     e( 31 - 31) =      4.77530  eV     1   --> A''            
     e( 32 - 32) =      5.01117  eV     1   --> A'             

 **************************************************************************

 **************************************************************************

                    xk=(   0.06667,   0.00000,   0.00000  )

     Band symmetry, C_s (m)     point group:

     e(  1 -  1) =    -61.86133  eV     1   --> A'             
     e(  2 -  2) =    -48.55758  eV     1   --> A'             
     e(  3 -  3) =    -48.55745  eV     1   --> A'             
     e(  4 -  4) =    -48.55724  eV     1   --> A''            
     e(  5 -  5) =    -48.55708  eV     1   --> A''            
     e(  6 -  7) =    -48.51578  eV     2   -->   2 A'             
     e(  8 -  9) =    -48.51483  eV     2   -->   2 A''            
     e( 10 - 10) =    -48.49923  eV     1   --> A'             
     e( 11 - 11) =    -48.49706  eV     1   --> A''            
     e( 12 - 12) =    -36.06682  eV     1   --> A''            
     e( 13 - 13) =    -35.85852  eV     1   --> A'             
     e( 14 - 14) =    -35.85111  eV     1   --> A'             
     e( 15 - 15) =    -15.48421  eV     1   --> A'             
     e( 16 - 16) =    -14.46263  eV     1   --> A''            
     e( 17 - 17) =     -6.66203  eV     1   --> A'             
     e( 18 - 18) =     -3.42027  eV     1   --> A'             
     e( 19 - 19) =     -3.25245  eV     1   --> A''            
     e( 20 - 20) =     -3.24554  eV     1   --> A'             
     e( 21 - 21) =     -2.35094  eV     1   --> A''            
     e( 22 - 22) =     -2.18035  eV     1   --> A''            
     e( 23 - 23) =     -1.51840  eV     1   --> A'             
     e( 24 - 24) =      1.68124  eV     1   --> A''            
     e( 25 - 25) =      1.84692  eV     1   --> A'             
     e( 26 - 26) =      1.91834  eV     1   --> A''            
     e( 27 - 27) =      2.01641  eV     1   --> A'             
     e( 28 - 28) =      3.71952  eV     1   --> A'             
     e( 29 - 29) =      3.91412  eV     1   --> A''            
     e( 30 - 30) =      4.18993  eV     1   --> A'             
     e( 31 - 31) =      4.78737  eV     1   --> A''            
     e( 32 - 32) =      5.04290  eV     1   --> A'             

 **************************************************************************

 **************************************************************************

                    xk=(   0.07333,   0.00000,   0.00000  )

     Band symmetry, C_s (m)     point group:

     e(  1 -  1) =    -61.86116  eV     1   --> A'             
     e(  2 -  2) =    -48.55757  eV     1   --> A'             
     e(  3 -  3) =    -48.55742  eV     1   --> A'             
     e(  4 -  4) =    -48.55725  eV     1   --> A''            
     e(  5 -  5) =    -48.55705  eV     1   --> A''            
     e(  6 -  7) =    -48.51578  eV     2   -->   2 A'             
     e(  8 -  9) =    -48.51485  eV     2   -->   2 A''            
     e( 10 - 10) =    -48.49922  eV     1   --> A'             
     e( 11 - 11) =    -48.49704  eV     1   --> A''            
     e( 12 - 12) =    -36.06639  eV     1   --> A''            
     e( 13 - 13) =    -35.86050  eV     1   --> A'             
     e( 14 - 14) =    -35.85157  eV     1   --> A'             
     e( 15 - 15) =    -15.47416  eV     1   --> A'             
     e( 16 - 16) =    -14.45714  eV     1   --> A''            
     e( 17 - 17) =     -6.64978  eV     1   --> A'             
     e( 18 - 18) =     -3.44584  eV     1   --> A'             
     e( 19 - 19) =     -3.27994  eV     1   --> A''            
     e( 20 - 20) =     -3.23547  eV     1   --> A'             
     e( 21 - 21) =     -2.36938  eV     1   --> A''            
     e( 22 - 22) =     -2.16655  eV     1   --> A''            
     e( 23 - 23) =     -1.52065  eV     1   --> A'             
     e( 24 - 24) =      1.65181  eV     1   --> A''            
     e( 25 - 25) =      1.80275  eV     1   --> A'             
     e( 26 - 26) =      1.93379  eV     1   --> A''            
     e( 27 - 27) =      2.00028  eV     1   --> A'             
     e( 28 - 28) =      3.73963  eV     1   --> A'             
     e( 29 - 29) =      3.92780  eV     1   --> A''            
     e( 30 - 30) =      4.20578  eV     1   --> A'             
     e( 31 - 31) =      4.80069  eV     1   --> A''            
     e( 32 - 32) =      5.07650  eV     1   --> A'             

 **************************************************************************

 **************************************************************************

                    xk=(   0.08000,   0.00000,   0.00000  )

     Band symmetry, C_s (m)     point group:

     e(  1 -  1) =    -61.86096  eV     1   --> A'             
     e(  2 -  2) =    -48.55756  eV     1   --> A'             
     e(  3 -  3) =    -48.55738  eV     1   --> A'             
     e(  4 -  4) =    -48.55725  eV     1   --> A''            
     e(  5 -  5) =    -48.55701  eV     1   --> A''            
     e(  6 -  7) =    -48.51579  eV     2   -->   2 A'             
     e(  8 -  9) =    -48.51487  eV     2   -->   2 A''            
     e( 10 - 10) =    -48.49920  eV     1   --> A'             
     e( 11 - 11) =    -48.49702  eV     1   --> A''            
     e( 12 - 12) =    -36.06591  eV     1   --> A''            
     e( 13 - 13) =    -35.86266  eV     1   --> A'             
     e( 14 - 14) =    -35.85208  eV     1   --> A'             
     e( 15 - 15) =    -15.46319  eV     1   --> A'             
     e( 16 - 16) =    -14.45114  eV     1   --> A''            
     e( 17 - 17) =     -6.63643  eV     1   --> A'             
     e( 18 - 18) =     -3.47349  eV     1   --> A'             
     e( 19 - 19) =     -3.30880  eV     1   --> A''            
     e( 20 - 20) =     -3.22451  eV     1   --> A'             
     e( 21 - 21) =     -2.38973  eV     1   --> A''            
     e( 22 - 22) =     -2.15258  eV     1   --> A''            
     e( 23 - 23) =     -1.52327  eV     1   --> A'             
     e( 24 - 24) =      1.62111  eV     1   --> A''            
     e( 25 - 25) =      1.75675  eV     1   --> A'             
     e( 26 - 26) =      1.95052  eV     1   --> A''            
     e( 27 - 27) =      1.98272  eV     1   --> A'             
     e( 28 - 28) =      3.76062  eV     1   --> A'             
     e( 29 - 29) =      3.94274  eV     1   --> A''            
     e( 30 - 30) =      4.22284  eV     1   --> A'             
     e( 31 - 31) =      4.81525  eV     1   --> A''            
     e( 32 - 32) =      5.11158  eV     1   --> A'             

 **************************************************************************

 **************************************************************************

                    xk=(   0.08667,   0.00000,   0.00000  )

     Band symmetry, C_s (m)     point group:

     e(  1 -  1) =    -61.86075  eV     1   --> A'             
     e(  2 -  2) =    -48.55755  eV     1   --> A'             
     e(  3 -  4) =    -48.55734  eV     2   --> A'             
     e(  3 -  4) =    -48.55734  eV     2   --> A''            
     e(  5 -  5) =    -48.55698  eV     1   --> A''            
     e(  6 -  7) =    -48.51579  eV     2   -->   2 A'             
     e(  8 -  8) =    -48.51489  eV     1   --> A''            
     e(  9 -  9) =    -48.51478  eV     1   --> A''            
     e( 10 - 10) =    -48.49918  eV     1   --> A'             
     e( 11 - 11) =    -48.49700  eV     1   --> A''            
     e( 12 - 12) =    -36.06540  eV     1   --> A''            
     e( 13 - 13) =    -35.86499  eV     1   --> A'             
     e( 14 - 14) =    -35.85263  eV     1   --> A'             
     e( 15 - 15) =    -15.45129  eV     1   --> A'             
     e( 16 - 16) =    -14.44463  eV     1   --> A''            
     e( 17 - 17) =     -6.62200  eV     1   --> A'             
     e( 18 - 18) =     -3.50315  eV     1   --> A'             
     e( 19 - 19) =     -3.33885  eV     1   --> A''            
     e( 20 - 20) =     -3.21267  eV     1   --> A'             
     e( 21 - 21) =     -2.41201  eV     1   --> A''            
     e( 22 - 22) =     -2.13860  eV     1   --> A''            
     e( 23 - 23) =     -1.52632  eV     1   --> A'             
     e( 24 - 24) =      1.58947  eV     1   --> A''            
     e( 25 - 25) =      1.70929  eV     1   --> A'             
     e( 26 - 26) =      1.96377  eV     1   --> A'             
     e( 27 - 27) =      1.96846  eV     1   --> A''            
     e( 28 - 28) =      3.78243  eV     1   --> A'             
     e( 29 - 29) =      3.95892  eV     1   --> A''            
     e( 30 - 30) =      4.24106  eV     1   --> A'             
     e( 31 - 31) =      4.83105  eV     1   --> A''            
     e( 32 - 32) =      5.14776  eV     1   --> A'             

 **************************************************************************

 **************************************************************************

                    xk=(   0.09333,   0.00000,   0.00000  )

     Band symmetry, C_s (m)     point group:

     e(  1 -  1) =    -61.86053  eV     1   --> A'             
     e(  2 -  2) =    -48.55754  eV     1   --> A'             
     e(  3 -  4) =    -48.55730  eV     2   --> A'             
     e(  3 -  4) =    -48.55730  eV     2   --> A''            
     e(  5 -  5) =    -48.55694  eV     1   --> A''            
     e(  6 -  7) =    -48.51580  eV     2   -->   2 A'             
     e(  8 -  8) =    -48.51491  eV     1   --> A''            
     e(  9 -  9) =    -48.51478  eV     1   --> A''            
     e( 10 - 10) =    -48.49916  eV     1   --> A'             
     e( 11 - 11) =    -48.49698  eV     1   --> A''            
     e( 12 - 12) =    -36.06485  eV     1   --> A''            
     e( 13 - 13) =    -35.86748  eV     1   --> A'             
     e( 14 - 14) =    -35.85323  eV     1   --> A'             
     e( 15 - 15) =    -15.43848  eV     1   --> A'             
     e( 16 - 16) =    -14.43762  eV     1   --> A''            
     e( 17 - 17) =     -6.60652  eV     1   --> A'             
     e( 18 - 18) =     -3.53472  eV     1   --> A'             
     e( 19 - 19) =     -3.36993  eV     1   --> A''            
     e( 20 - 20) =     -3.19997  eV     1   --> A'             
     e( 21 - 21) =     -2.43624  eV     1   --> A''            
     e( 22 - 22) =     -2.12476  eV     1   --> A''            
     e( 23 - 23) =     -1.52984  eV     1   --> A'             
     e( 24 - 24) =      1.55717  eV     1   --> A''            
     e( 25 - 25) =      1.66072  eV     1   --> A'             
     e( 26 - 26) =      1.94347  eV     1   --> A'             
     e( 27 - 27) =      1.98756  eV     1   --> A''            
     e( 28 - 28) =      3.80500  eV     1   --> A'             
     e( 29 - 29) =      3.97634  eV     1   --> A''            
     e( 30 - 30) =      4.26041  eV     1   --> A'             
     e( 31 - 31) =      4.84808  eV     1   --> A''            
     e( 32 - 32) =      5.18466  eV     1   --> A'             

 **************************************************************************

 **************************************************************************

                    xk=(   0.10000,   0.00000,   0.00000  )

     Band symmetry, C_s (m)     point group:

     e(  1 -  1) =    -61.86029  eV     1   --> A'             
     e(  2 -  2) =    -48.55753  eV     1   --> A'             
     e(  3 -  4) =    -48.55726  eV     2   --> A'             
     e(  3 -  4) =    -48.55726  eV     2   --> A''            
     e(  5 -  5) =    -48.55690  eV     1   --> A''            
     e(  6 -  7) =    -48.51581  eV     2   -->   2 A'             
     e(  8 -  8) =    -48.51493  eV     1   --> A''            
     e(  9 -  9) =    -48.51479  eV     1   --> A''            
     e( 10 - 10) =    -48.49914  eV     1   --> A'             
     e( 11 - 11) =    -48.49696  eV     1   --> A''            
     e( 12 - 12) =    -36.06426  eV     1   --> A''            
     e( 13 - 13) =    -35.87014  eV     1   --> A'             
     e( 14 - 14) =    -35.85387  eV     1   --> A'             
     e( 15 - 15) =    -15.42476  eV     1   --> A'             
     e( 16 - 16) =    -14.43012  eV     1   --> A''            
     e( 17 - 17) =     -6.59000  eV     1   --> A'             
     e( 18 - 18) =     -3.56812  eV     1   --> A'             
     e( 19 - 19) =     -3.40189  eV     1   --> A''            
     e( 20 - 20) =     -3.18645  eV     1   --> A'             
     e( 21 - 21) =     -2.46246  eV     1   --> A''            
     e( 22 - 22) =     -2.11117  eV     1   --> A''            
     e( 23 - 23) =     -1.53386  eV     1   --> A'             
     e( 24 - 24) =      1.52453  eV     1   --> A''            
     e( 25 - 25) =      1.61136  eV     1   --> A'             
     e( 26 - 26) =      1.92187  eV     1   --> A'             
     e( 27 - 27) =      2.00776  eV     1   --> A''            
     e( 28 - 28) =      3.82832  eV     1   --> A'             
     e( 29 - 29) =      3.99500  eV     1   --> A''            
     e( 30 - 30) =      4.28087  eV     1   --> A'             
     e( 31 - 31) =      4.86633  eV     1   --> A''            
     e( 32 - 32) =      5.22196  eV     1   --> A'             

 **************************************************************************

 **************************************************************************

                    xk=(   0.10667,   0.00000,   0.00000  )

     Band symmetry, C_s (m)     point group:

     e(  1 -  1) =    -61.86004  eV     1   --> A'             
     e(  2 -  2) =    -48.55753  eV     1   --> A'             
     e(  3 -  4) =    -48.55726  eV     2   --> A'             
     e(  3 -  4) =    -48.55726  eV     2   --> A''            
     e(  5 -  5) =    -48.55685  eV     1   --> A''            
     e(  6 -  7) =    -48.51582  eV     2   -->   2 A'             
     e(  8 -  8) =    -48.51496  eV     1   --> A''            
     e(  9 -  9) =    -48.51479  eV     1   --> A''            
     e( 10 - 10) =    -48.49912  eV     1   --> A'             
     e( 11 - 11) =    -48.49694  eV     1   --> A''            
     e( 12 - 12) =    -36.06363  eV     1   --> A''            
     e( 13 - 13) =    -35.87296  eV     1   --> A'             
     e( 14 - 14) =    -35.85456  eV     1   --> A'             
     e( 15 - 15) =    -15.41013  eV     1   --> A'             
     e( 16 - 16) =    -14.42212  eV     1   --> A''            
     e( 17 - 17) =     -6.57247  eV     1   --> A'             
     e( 18 - 18) =     -3.60324  eV     1   --> A'             
     e( 19 - 19) =     -3.43459  eV     1   --> A''            
     e( 20 - 20) =     -3.17213  eV     1   --> A'             
     e( 21 - 21) =     -2.49067  eV     1   --> A''            
     e( 22 - 22) =     -2.09795  eV     1   --> A''            
     e( 23 - 23) =     -1.53846  eV     1   --> A'             
     e( 24 - 24) =      1.49183  eV     1   --> A''            
     e( 25 - 25) =      1.56149  eV     1   --> A'             
     e( 26 - 26) =      1.89900  eV     1   --> A'             
     e( 27 - 27) =      2.02900  eV     1   --> A''            
     e( 28 - 28) =      3.85237  eV     1   --> A'             
     e( 29 - 29) =      4.01488  eV     1   --> A''            
     e( 30 - 30) =      4.30241  eV     1   --> A'             
     e( 31 - 31) =      4.88581  eV     1   --> A''            
     e( 32 - 32) =      5.25939  eV     1   --> A'             

 **************************************************************************

 **************************************************************************

                    xk=(   0.11333,   0.00000,   0.00000  )

     Band symmetry, C_s (m)     point group:

     e(  1 -  1) =    -61.85977  eV     1   --> A'             
     e(  2 -  2) =    -48.55752  eV     1   --> A'             
     e(  3 -  3) =    -48.55727  eV     1   --> A''            
     e(  4 -  4) =    -48.55716  eV     1   --> A'             
     e(  5 -  5) =    -48.55681  eV     1   --> A''            
     e(  6 -  7) =    -48.51583  eV     2   -->   2 A'             
     e(  8 -  8) =    -48.51498  eV     1   --> A''            
     e(  9 -  9) =    -48.51480  eV     1   --> A''            
     e( 10 - 10) =    -48.49910  eV     1   --> A'             
     e( 11 - 11) =    -48.49691  eV     1   --> A''            
     e( 12 - 12) =    -36.06297  eV     1   --> A''            
     e( 13 - 13) =    -35.87593  eV     1   --> A'             
     e( 14 - 14) =    -35.85529  eV     1   --> A'             
     e( 15 - 15) =    -15.39462  eV     1   --> A'             
     e( 16 - 16) =    -14.41364  eV     1   --> A''            
     e( 17 - 17) =     -6.55395  eV     1   --> A'             
     e( 18 - 18) =     -3.63998  eV     1   --> A'             
     e( 19 - 19) =     -3.46793  eV     1   --> A''            
     e( 20 - 20) =     -3.15703  eV     1   --> A'             
     e( 21 - 21) =     -2.52089  eV     1   --> A''            
     e( 22 - 22) =     -2.08518  eV     1   --> A''            
     e( 23 - 23) =     -1.54366  eV     1   --> A'             
     e( 24 - 24) =      1.45935  eV     1   --> A''            
     e( 25 - 25) =      1.51140  eV     1   --> A'             
     e( 26 - 26) =      1.87494  eV     1   --> A'             
     e( 27 - 27) =      2.05121  eV     1   --> A''            
     e( 28 - 28) =      3.87715  eV     1   --> A'             
     e( 29 - 29) =      4.03599  eV     1   --> A''            
     e( 30 - 30) =      4.32503  eV     1   --> A'             
     e( 31 - 31) =      4.90651  eV     1   --> A''            
     e( 32 - 32) =      5.29675  eV     1   --> A'             

 **************************************************************************

 **************************************************************************

                    xk=(   0.12000,   0.00000,   0.00000  )

     Band symmetry, C_s (m)     point group:

     e(  1 -  1) =    -61.85949  eV     1   --> A'             
     e(  2 -  2) =    -48.55751  eV     1   --> A'             
     e(  3 -  3) =    -48.55727  eV     1   --> A''            
     e(  4 -  4) =    -48.55711  eV     1   --> A'             
     e(  5 -  5) =    -48.55676  eV     1   --> A''            
     e(  6 -  7) =    -48.51584  eV     2   -->   2 A'             
     e(  8 -  8) =    -48.51501  eV     1   --> A''            
     e(  9 -  9) =    -48.51480  eV     1   --> A''            
     e( 10 - 10) =    -48.49908  eV     1   --> A'             
     e( 11 - 11) =    -48.49689  eV     1   --> A''            
     e( 12 - 12) =    -36.06228  eV     1   --> A''            
     e( 13 - 13) =    -35.87905  eV     1   --> A'             
     e( 14 - 14) =    -35.85606  eV     1   --> A'             
     e( 15 - 15) =    -15.37823  eV     1   --> A'             
     e( 16 - 16) =    -14.40468  eV     1   --> A''            
     e( 17 - 17) =     -6.53449  eV     1   --> A'             
     e( 18 - 18) =     -3.67824  eV     1   --> A'             
     e( 19 - 19) =     -3.50178  eV     1   --> A''            
     e( 20 - 20) =     -3.14119  eV     1   --> A'             
     e( 21 - 21) =     -2.55313  eV     1   --> A''            
     e( 22 - 22) =     -2.07295  eV     1   --> A''            
     e( 23 - 23) =     -1.54953  eV     1   --> A'             
     e( 24 - 24) =      1.42733  eV     1   --> A''            
     e( 25 - 25) =      1.46134  eV     1   --> A'             
     e( 26 - 26) =      1.84975  eV     1   --> A'             
     e( 27 - 27) =      2.07433  eV     1   --> A''            
     e( 28 - 28) =      3.90267  eV     1   --> A'             
     e( 29 - 29) =      4.05832  eV     1   --> A''            
     e( 30 - 30) =      4.34871  eV     1   --> A'             
     e( 31 - 31) =      4.92842  eV     1   --> A''            
     e( 32 - 32) =      5.33392  eV     1   --> A'             

 **************************************************************************

 **************************************************************************

                    xk=(   0.12667,   0.00000,   0.00000  )

     Band symmetry, C_s (m)     point group:

     e(  1 -  1) =    -61.85919  eV     1   --> A'             
     e(  2 -  2) =    -48.55750  eV     1   --> A'             
     e(  3 -  3) =    -48.55727  eV     1   --> A''            
     e(  4 -  4) =    -48.55706  eV     1   --> A'             
     e(  5 -  5) =    -48.55671  eV     1   --> A''            
     e(  6 -  7) =    -48.51585  eV     2   -->   2 A'             
     e(  8 -  8) =    -48.51504  eV     1   --> A''            
     e(  9 -  9) =    -48.51481  eV     1   --> A''            
     e( 10 - 10) =    -48.49905  eV     1   --> A'             
     e( 11 - 11) =    -48.49686  eV     1   --> A''            
     e( 12 - 12) =    -36.06155  eV     1   --> A''            
     e( 13 - 13) =    -35.88231  eV     1   --> A'             
     e( 14 - 14) =    -35.85688  eV     1   --> A'             
     e( 15 - 15) =    -15.36097  eV     1   --> A'             
     e( 16 - 16) =    -14.39524  eV     1   --> A''            
     e( 17 - 17) =     -6.51410  eV     1   --> A'             
     e( 18 - 18) =     -3.71792  eV     1   --> A'             
     e( 19 - 19) =     -3.53605  eV     1   --> A''            
     e( 20 - 20) =     -3.12466  eV     1   --> A'             
     e( 21 - 21) =     -2.58739  eV     1   --> A''            
     e( 22 - 22) =     -2.06133  eV     1   --> A''            
     e( 23 - 23) =     -1.55612  eV     1   --> A'             
     e( 24 - 24) =      1.39602  eV     1   --> A''            
     e( 25 - 25) =      1.41152  eV     1   --> A'             
     e( 26 - 26) =      1.82349  eV     1   --> A'             
     e( 27 - 27) =      2.09828  eV     1   --> A''            
     e( 28 - 28) =      3.92895  eV     1   --> A'             
     e( 29 - 29) =      4.08186  eV     1   --> A''            
     e( 30 - 30) =      4.37345  eV     1   --> A'             
     e( 31 - 31) =      4.95154  eV     1   --> A''            
     e( 32 - 32) =      5.37084  eV     1   --> A'             

 **************************************************************************

 **************************************************************************

                    xk=(   0.13333,   0.00000,   0.00000  )

     Band symmetry, C_s (m)     point group:

     e(  1 -  1) =    -61.85888  eV     1   --> A'             
     e(  2 -  2) =    -48.55748  eV     1   --> A'             
     e(  3 -  3) =    -48.55728  eV     1   --> A''            
     e(  4 -  4) =    -48.55701  eV     1   --> A'             
     e(  5 -  5) =    -48.55665  eV     1   --> A''            
     e(  6 -  7) =    -48.51586  eV     2   -->   2 A'             
     e(  8 -  8) =    -48.51506  eV     1   --> A''            
     e(  9 -  9) =    -48.51482  eV     1   --> A''            
     e( 10 - 10) =    -48.49903  eV     1   --> A'             
     e( 11 - 11) =    -48.49683  eV     1   --> A''            
     e( 12 - 12) =    -36.06079  eV     1   --> A''            
     e( 13 - 13) =    -35.88571  eV     1   --> A'             
     e( 14 - 14) =    -35.85775  eV     1   --> A'             
     e( 15 - 15) =    -15.34285  eV     1   --> A'             
     e( 16 - 16) =    -14.38533  eV     1   --> A''            
     e( 17 - 17) =     -6.49283  eV     1   --> A'             
     e( 18 - 18) =     -3.75891  eV     1   --> A'             
     e( 19 - 19) =     -3.57065  eV     1   --> A''            
     e( 20 - 20) =     -3.10747  eV     1   --> A'             
     e( 21 - 21) =     -2.62365  eV     1   --> A''            
     e( 22 - 22) =     -2.05039  eV     1   --> A''            
     e( 23 - 23) =     -1.56346  eV     1   --> A'             
     e( 24 - 24) =      1.36216  eV     1   --> A'             
     e( 25 - 25) =      1.36562  eV     1   --> A''            
     e( 26 - 26) =      1.79623  eV     1   --> A'             
     e( 27 - 27) =      2.12298  eV     1   --> A''            
     e( 28 - 28) =      3.95600  eV     1   --> A'             
     e( 29 - 29) =      4.10661  eV     1   --> A''            
     e( 30 - 30) =      4.39925  eV     1   --> A'             
     e( 31 - 31) =      4.97586  eV     1   --> A''            
     e( 32 - 32) =      5.40750  eV     1   --> A'             

 **************************************************************************

 **************************************************************************

                    xk=(   0.14000,   0.00000,   0.00000  )

     Band symmetry, C_s (m)     point group:

     e(  1 -  1) =    -61.85855  eV     1   --> A'             
     e(  2 -  2) =    -48.55747  eV     1   --> A'             
     e(  3 -  3) =    -48.55728  eV     1   --> A''            
     e(  4 -  4) =    -48.55695  eV     1   --> A'             
     e(  5 -  5) =    -48.55660  eV     1   --> A''            
     e(  6 -  7) =    -48.51587  eV     2   -->   2 A'             
     e(  8 -  8) =    -48.51509  eV     1   --> A''            
     e(  9 -  9) =    -48.51482  eV     1   --> A''            
     e( 10 - 10) =    -48.49900  eV     1   --> A'             
     e( 11 - 11) =    -48.49680  eV     1   --> A''            
     e( 12 - 12) =    -36.05999  eV     1   --> A''            
     e( 13 - 13) =    -35.88924  eV     1   --> A'             
     e( 14 - 14) =    -35.85866  eV     1   --> A'             
     e( 15 - 15) =    -15.32389  eV     1   --> A'             
     e( 16 - 16) =    -14.37497  eV     1   --> A''            
     e( 17 - 17) =     -6.47071  eV     1   --> A'             
     e( 18 - 18) =     -3.80111  eV     1   --> A'             
     e( 19 - 19) =     -3.60551  eV     1   --> A''            
     e( 20 - 20) =     -3.08966  eV     1   --> A'             
     e( 21 - 21) =     -2.66190  eV     1   --> A''            
     e( 22 - 22) =     -2.04018  eV     1   --> A''            
     e( 23 - 23) =     -1.57162  eV     1   --> A'             
     e( 24 - 24) =      1.31346  eV     1   --> A'             
     e( 25 - 25) =      1.33633  eV     1   --> A''            
     e( 26 - 26) =      1.76808  eV     1   --> A'             
     e( 27 - 27) =      2.14837  eV     1   --> A''            
     e( 28 - 28) =      3.98385  eV     1   --> A'             
     e( 29 - 29) =      4.13257  eV     1   --> A''            
     e( 30 - 30) =      4.42611  eV     1   --> A'             
     e( 31 - 31) =      5.00139  eV     1   --> A''            
     e( 32 - 32) =      5.44396  eV     1   --> A'             

 **************************************************************************

 **************************************************************************

                    xk=(   0.14667,   0.00000,   0.00000  )

     Band symmetry, C_s (m)     point group:

     e(  1 -  1) =    -61.85822  eV     1   --> A'             
     e(  2 -  2) =    -48.55746  eV     1   --> A'             
     e(  3 -  3) =    -48.55729  eV     1   --> A''            
     e(  4 -  4) =    -48.55689  eV     1   --> A'             
     e(  5 -  5) =    -48.55654  eV     1   --> A''            
     e(  6 -  7) =    -48.51589  eV     2   -->   2 A'             
     e(  8 -  8) =    -48.51513  eV     1   --> A''            
     e(  9 -  9) =    -48.51483  eV     1   --> A''            
     e( 10 - 10) =    -48.49897  eV     1   --> A'             
     e( 11 - 11) =    -48.49677  eV     1   --> A''            
     e( 12 - 12) =    -36.05917  eV     1   --> A''            
     e( 13 - 13) =    -35.89290  eV     1   --> A'             
     e( 14 - 14) =    -35.85961  eV     1   --> A'             
     e( 15 - 15) =    -15.30409  eV     1   --> A'             
     e( 16 - 16) =    -14.36414  eV     1   --> A''            
     e( 17 - 17) =     -6.44779  eV     1   --> A'             
     e( 18 - 18) =     -3.84440  eV     1   --> A'             
     e( 19 - 19) =     -3.64054  eV     1   --> A''            
     e( 20 - 20) =     -3.07130  eV     1   --> A'             
     e( 21 - 21) =     -2.70211  eV     1   --> A''            
     e( 22 - 22) =     -2.03074  eV     1   --> A''            
     e( 23 - 23) =     -1.58062  eV     1   --> A'             
     e( 24 - 24) =      1.26558  eV     1   --> A'             
     e( 25 - 25) =      1.30833  eV     1   --> A''            
     e( 26 - 26) =      1.73910  eV     1   --> A'             
     e( 27 - 27) =      2.17436  eV     1   --> A''            
     e( 28 - 28) =      4.01251  eV     1   --> A'             
     e( 29 - 29) =      4.15972  eV     1   --> A''            
     e( 30 - 30) =      4.45404  eV     1   --> A'             
     e( 31 - 31) =      5.02812  eV     1   --> A''            
     e( 32 - 32) =      5.48029  eV     1   --> A'             

 **************************************************************************

 **************************************************************************

                    xk=(   0.15333,   0.00000,   0.00000  )

     Band symmetry, C_s (m)     point group:

     e(  1 -  1) =    -61.85788  eV     1   --> A'             
     e(  2 -  2) =    -48.55745  eV     1   --> A'             
     e(  3 -  3) =    -48.55729  eV     1   --> A''            
     e(  4 -  4) =    -48.55683  eV     1   --> A'             
     e(  5 -  5) =    -48.55648  eV     1   --> A''            
     e(  6 -  6) =    -48.51590  eV     1   --> A'             
     e(  7 -  7) =    -48.51580  eV     1   --> A'             
     e(  8 -  8) =    -48.51516  eV     1   --> A''            
     e(  9 -  9) =    -48.51484  eV     1   --> A''            
     e( 10 - 10) =    -48.49894  eV     1   --> A'             
     e( 11 - 11) =    -48.49674  eV     1   --> A''            
     e( 12 - 12) =    -36.05831  eV     1   --> A''            
     e( 13 - 13) =    -35.89667  eV     1   --> A'             
     e( 14 - 14) =    -35.86061  eV     1   --> A'             
     e( 15 - 15) =    -15.28347  eV     1   --> A'             
     e( 16 - 16) =    -14.35287  eV     1   --> A''            
     e( 17 - 17) =     -6.42409  eV     1   --> A'             
     e( 18 - 18) =     -3.88868  eV     1   --> A'             
     e( 19 - 19) =     -3.67568  eV     1   --> A''            
     e( 20 - 20) =     -3.05245  eV     1   --> A'             
     e( 21 - 21) =     -2.74423  eV     1   --> A''            
     e( 22 - 22) =     -2.02213  eV     1   --> A''            
     e( 23 - 23) =     -1.59051  eV     1   --> A'             
     e( 24 - 24) =      1.21868  eV     1   --> A'             
     e( 25 - 25) =      1.28176  eV     1   --> A''            
     e( 26 - 26) =      1.70942  eV     1   --> A'             
     e( 27 - 27) =      2.20089  eV     1   --> A''            
     e( 28 - 28) =      4.04201  eV     1   --> A'             
     e( 29 - 29) =      4.18808  eV     1   --> A''            
     e( 30 - 30) =      4.48303  eV     1   --> A'             
     e( 31 - 31) =      5.05604  eV     1   --> A''            
     e( 32 - 32) =      5.51657  eV     1   --> A'             

 **************************************************************************

 **************************************************************************

                    xk=(   0.16000,   0.00000,   0.00000  )

     Band symmetry, C_s (m)     point group:

     e(  1 -  1) =    -61.85753  eV     1   --> A'             
     e(  2 -  2) =    -48.55744  eV     1   --> A'             
     e(  3 -  3) =    -48.55729  eV     1   --> A''            
     e(  4 -  4) =    -48.55677  eV     1   --> A'             
     e(  5 -  5) =    -48.55642  eV     1   --> A''            
     e(  6 -  6) =    -48.51591  eV     1   --> A'             
     e(  7 -  7) =    -48.51580  eV     1   --> A'             
     e(  8 -  8) =    -48.51520  eV     1   --> A''            
     e(  9 -  9) =    -48.51484  eV     1   --> A''            
     e( 10 - 10) =    -48.49891  eV     1   --> A'             
     e( 11 - 11) =    -48.49670  eV     1   --> A''            
     e( 12 - 12) =    -36.05742  eV     1   --> A''            
     e( 13 - 13) =    -35.90056  eV     1   --> A'             
     e( 14 - 14) =    -35.86166  eV     1   --> A'             
     e( 15 - 15) =    -15.26205  eV     1   --> A'             
     e( 16 - 16) =    -14.34116  eV     1   --> A''            
     e( 17 - 17) =     -6.39968  eV     1   --> A'             
     e( 18 - 18) =     -3.93383  eV     1   --> A'             
     e( 19 - 19) =     -3.71088  eV     1   --> A''            
     e( 20 - 20) =     -3.03316  eV     1   --> A'             
     e( 21 - 21) =     -2.78823  eV     1   --> A''            
     e( 22 - 22) =     -2.01437  eV     1   --> A''            
     e( 23 - 23) =     -1.60131  eV     1   --> A'             
     e( 24 - 24) =      1.17289  eV     1   --> A'             
     e( 25 - 25) =      1.25675  eV     1   --> A''            
     e( 26 - 26) =      1.67913  eV     1   --> A'             
     e( 27 - 27) =      2.22786  eV     1   --> A''            
     e( 28 - 28) =      4.07235  eV     1   --> A'             
     e( 29 - 29) =      4.21762  eV     1   --> A''            
     e( 30 - 30) =      4.51309  eV     1   --> A'             
     e( 31 - 31) =      5.08515  eV     1   --> A''            
     e( 32 - 32) =      5.55292  eV     1   --> A'             

 **************************************************************************

 **************************************************************************

                    xk=(   0.16667,   0.00000,   0.00000  )

     Band symmetry, C_s (m)     point group:

     e(  1 -  1) =    -61.85715  eV     1   --> A'             
     e(  2 -  2) =    -48.55742  eV     1   --> A'             
     e(  3 -  3) =    -48.55730  eV     1   --> A''            
     e(  4 -  4) =    -48.55670  eV     1   --> A'             
     e(  5 -  5) =    -48.55636  eV     1   --> A''            
     e(  6 -  6) =    -48.51593  eV     1   --> A'             
     e(  7 -  7) =    -48.51580  eV     1   --> A'             
     e(  8 -  8) =    -48.51523  eV     1   --> A''            
     e(  9 -  9) =    -48.51485  eV     1   --> A''            
     e( 10 - 10) =    -48.49888  eV     1   --> A'             
     e( 11 - 11) =    -48.49667  eV     1   --> A''            
     e( 12 - 12) =    -36.05651  eV     1   --> A''            
     e( 13 - 13) =    -35.90455  eV     1   --> A'             
     e( 14 - 14) =    -35.86274  eV     1   --> A'             
     e( 15 - 15) =    -15.23984  eV     1   --> A'             
     e( 16 - 16) =    -14.32902  eV     1   --> A''            
     e( 17 - 17) =     -6.37460  eV     1   --> A'             
     e( 18 - 18) =     -3.97974  eV     1   --> A'             
     e( 19 - 19) =     -3.74608  eV     1   --> A''            
     e( 20 - 20) =     -3.01351  eV     1   --> A'             
     e( 21 - 21) =     -2.83403  eV     1   --> A''            
     e( 22 - 22) =     -2.00750  eV     1   --> A''            
     e( 23 - 23) =     -1.61304  eV     1   --> A'             
     e( 24 - 24) =      1.12834  eV     1   --> A'             
     e( 25 - 25) =      1.23342  eV     1   --> A''            
     e( 26 - 26) =      1.64835  eV     1   --> A'             
     e( 27 - 27) =      2.25520  eV     1   --> A''            
     e( 28 - 28) =      4.10357  eV     1   --> A'             
     e( 29 - 29) =      4.24835  eV     1   --> A''            
     e( 30 - 30) =      4.54423  eV     1   --> A'             
     e( 31 - 31) =      5.11545  eV     1   --> A''            
     e( 32 - 32) =      5.58944  eV     1   --> A'             

 **************************************************************************

 **************************************************************************

                    xk=(   0.17333,   0.00000,   0.00000  )

     Band symmetry, C_s (m)     point group:

     e(  1 -  1) =    -61.85677  eV     1   --> A'             
     e(  2 -  2) =    -48.55741  eV     1   --> A'             
     e(  3 -  3) =    -48.55730  eV     1   --> A''            
     e(  4 -  4) =    -48.55663  eV     1   --> A'             
     e(  5 -  5) =    -48.55630  eV     1   --> A''            
     e(  6 -  6) =    -48.51594  eV     1   --> A'             
     e(  7 -  7) =    -48.51580  eV     1   --> A'             
     e(  8 -  8) =    -48.51527  eV     1   --> A''            
     e(  9 -  9) =    -48.51486  eV     1   --> A''            
     e( 10 - 10) =    -48.49885  eV     1   --> A'             
     e( 11 - 11) =    -48.49663  eV     1   --> A''            
     e( 12 - 12) =    -36.05557  eV     1   --> A''            
     e( 13 - 13) =    -35.90865  eV     1   --> A'             
     e( 14 - 14) =    -35.86388  eV     1   --> A'             
     e( 15 - 15) =    -15.21685  eV     1   --> A'             
     e( 16 - 16) =    -14.31646  eV     1   --> A''            
     e( 17 - 17) =     -6.34891  eV     1   --> A'             
     e( 18 - 18) =     -4.02630  eV     1   --> A'             
     e( 19 - 19) =     -3.78125  eV     1   --> A''            
     e( 20 - 20) =     -2.99359  eV     1   --> A'             
     e( 21 - 21) =     -2.88157  eV     1   --> A''            
     e( 22 - 22) =     -2.00154  eV     1   --> A''            
     e( 23 - 23) =     -1.62570  eV     1   --> A'             
     e( 24 - 24) =      1.08512  eV     1   --> A'             
     e( 25 - 25) =      1.21186  eV     1   --> A''            
     e( 26 - 26) =      1.61721  eV     1   --> A'             
     e( 27 - 27) =      2.28283  eV     1   --> A''            
     e( 28 - 28) =      4.13567  eV     1   --> A'             
     e( 29 - 29) =      4.28026  eV     1   --> A''            
     e( 30 - 30) =      4.57646  eV     1   --> A'             
     e( 31 - 31) =      5.14693  eV     1   --> A''            
     e( 32 - 32) =      5.62622  eV     1   --> A'             

 **************************************************************************

 **************************************************************************

                    xk=(   0.18000,   0.00000,   0.00000  )

     Band symmetry, C_s (m)     point group:

     e(  1 -  1) =    -61.85638  eV     1   --> A'             
     e(  2 -  3) =    -48.55739  eV     2   --> A'             
     e(  2 -  3) =    -48.55739  eV     2   --> A''            
     e(  4 -  4) =    -48.55656  eV     1   --> A'             
     e(  5 -  5) =    -48.55623  eV     1   --> A''            
     e(  6 -  6) =    -48.51596  eV     1   --> A'             
     e(  7 -  7) =    -48.51580  eV     1   --> A'             
     e(  8 -  8) =    -48.51530  eV     1   --> A''            
     e(  9 -  9) =    -48.51487  eV     1   --> A''            
     e( 10 - 10) =    -48.49882  eV     1   --> A'             
     e( 11 - 11) =    -48.49660  eV     1   --> A''            
     e( 12 - 12) =    -36.05461  eV     1   --> A''            
     e( 13 - 13) =    -35.91283  eV     1   --> A'             
     e( 14 - 14) =    -35.86506  eV     1   --> A'             
     e( 15 - 15) =    -15.19310  eV     1   --> A'             
     e( 16 - 16) =    -14.30348  eV     1   --> A''            
     e( 17 - 17) =     -6.32266  eV     1   --> A'             
     e( 18 - 18) =     -4.07339  eV     1   --> A'             
     e( 19 - 19) =     -3.81633  eV     1   --> A''            
     e( 20 - 20) =     -2.97349  eV     1   --> A'             
     e( 21 - 21) =     -2.93077  eV     1   --> A''            
     e( 22 - 22) =     -1.99653  eV     1   --> A''            
     e( 23 - 23) =     -1.63929  eV     1   --> A'             
     e( 24 - 24) =      1.04331  eV     1   --> A'             
     e( 25 - 25) =      1.19214  eV     1   --> A''            
     e( 26 - 26) =      1.58584  eV     1   --> A'             
     e( 27 - 27) =      2.31067  eV     1   --> A''            
     e( 28 - 28) =      4.16867  eV     1   --> A'             
     e( 29 - 29) =      4.31334  eV     1   --> A''            
     e( 30 - 30) =      4.60977  eV     1   --> A'             
     e( 31 - 31) =      5.17958  eV     1   --> A''            
     e( 32 - 32) =      5.66337  eV     1   --> A'             

 **************************************************************************

 **************************************************************************

                    xk=(   0.18667,   0.00000,   0.00000  )

     Band symmetry, C_s (m)     point group:

     e(  1 -  1) =    -61.85598  eV     1   --> A'             
     e(  2 -  3) =    -48.55737  eV     2   --> A'             
     e(  2 -  3) =    -48.55737  eV     2   --> A''            
     e(  4 -  4) =    -48.55649  eV     1   --> A'             
     e(  5 -  5) =    -48.55617  eV     1   --> A''            
     e(  6 -  6) =    -48.51598  eV     1   --> A'             
     e(  7 -  7) =    -48.51580  eV     1   --> A'             
     e(  8 -  8) =    -48.51534  eV     1   --> A''            
     e(  9 -  9) =    -48.51487  eV     1   --> A''            
     e( 10 - 10) =    -48.49878  eV     1   --> A'             
     e( 11 - 11) =    -48.49656  eV     1   --> A''            
     e( 12 - 12) =    -36.05362  eV     1   --> A''            
     e( 13 - 13) =    -35.91711  eV     1   --> A'             
     e( 14 - 14) =    -35.86628  eV     1   --> A'             
     e( 15 - 15) =    -15.16860  eV     1   --> A'             
     e( 16 - 16) =    -14.29010  eV     1   --> A''            
     e( 17 - 17) =     -6.29593  eV     1   --> A'             
     e( 18 - 18) =     -4.12090  eV     1   --> A'             
     e( 19 - 19) =     -3.85129  eV     1   --> A''            
     e( 20 - 20) =     -2.98153  eV     1   --> A''            
     e( 21 - 21) =     -2.95332  eV     1   --> A'             
     e( 22 - 22) =     -1.99248  eV     1   --> A''            
     e( 23 - 23) =     -1.65378  eV     1   --> A'             
     e( 24 - 24) =      1.00299  eV     1   --> A'             
     e( 25 - 25) =      1.17431  eV     1   --> A''            
     e( 26 - 26) =      1.55440  eV     1   --> A'             
     e( 27 - 27) =      2.33864  eV     1   --> A''            
     e( 28 - 28) =      4.20257  eV     1   --> A'             
     e( 29 - 29) =      4.34758  eV     1   --> A''            
     e( 30 - 30) =      4.64418  eV     1   --> A'             
     e( 31 - 31) =      5.21339  eV     1   --> A''            
     e( 32 - 32) =      5.70096  eV     1   --> A'             

 **************************************************************************

 **************************************************************************

                    xk=(   0.19333,   0.00000,   0.00000  )

     Band symmetry, C_s (m)     point group:

     e(  1 -  1) =    -61.85557  eV     1   --> A'             
     e(  2 -  3) =    -48.55735  eV     2   --> A'             
     e(  2 -  3) =    -48.55735  eV     2   --> A''            
     e(  4 -  4) =    -48.55642  eV     1   --> A'             
     e(  5 -  5) =    -48.55610  eV     1   --> A''            
     e(  6 -  6) =    -48.51599  eV     1   --> A'             
     e(  7 -  7) =    -48.51581  eV     1   --> A'             
     e(  8 -  8) =    -48.51537  eV     1   --> A''            
     e(  9 -  9) =    -48.51488  eV     1   --> A''            
     e( 10 - 10) =    -48.49875  eV     1   --> A'             
     e( 11 - 11) =    -48.49652  eV     1   --> A''            
     e( 12 - 12) =    -36.05261  eV     1   --> A''            
     e( 13 - 13) =    -35.92146  eV     1   --> A'             
     e( 14 - 14) =    -35.86755  eV     1   --> A'             
     e( 15 - 15) =    -15.14338  eV     1   --> A'             
     e( 16 - 16) =    -14.27632  eV     1   --> A''            
     e( 17 - 17) =     -6.26877  eV     1   --> A'             
     e( 18 - 18) =     -4.16870  eV     1   --> A'             
     e( 19 - 19) =     -3.88612  eV     1   --> A''            
     e( 20 - 20) =     -3.03375  eV     1   --> A''            
     e( 21 - 21) =     -2.93319  eV     1   --> A'             
     e( 22 - 22) =     -1.98941  eV     1   --> A''            
     e( 23 - 23) =     -1.66912  eV     1   --> A'             
     e( 24 - 24) =      0.96418  eV     1   --> A'             
     e( 25 - 25) =      1.15840  eV     1   --> A''            
     e( 26 - 26) =      1.52302  eV     1   --> A'             
     e( 27 - 27) =      2.36666  eV     1   --> A''            
     e( 28 - 28) =      4.23740  eV     1   --> A'             
     e( 29 - 29) =      4.38298  eV     1   --> A''            
     e( 30 - 30) =      4.67970  eV     1   --> A'             
     e( 31 - 31) =      5.24837  eV     1   --> A''            
     e( 32 - 32) =      5.73907  eV     1   --> A'             

 **************************************************************************

 **************************************************************************

                    xk=(   0.20000,   0.00000,   0.00000  )

     Band symmetry, C_s (m)     point group:

     e(  1 -  1) =    -61.85515  eV     1   --> A'             
     e(  2 -  3) =    -48.55734  eV     2   --> A'             
     e(  2 -  3) =    -48.55734  eV     2   --> A''            
     e(  4 -  4) =    -48.55635  eV     1   --> A'             
     e(  5 -  5) =    -48.55603  eV     1   --> A''            
     e(  6 -  6) =    -48.51601  eV     1   --> A'             
     e(  7 -  7) =    -48.51580  eV     1   --> A'             
     e(  8 -  8) =    -48.51541  eV     1   --> A''            
     e(  9 -  9) =    -48.51489  eV     1   --> A''            
     e( 10 - 10) =    -48.49871  eV     1   --> A'             
     e( 11 - 11) =    -48.49648  eV     1   --> A''            
     e( 12 - 12) =    -36.05157  eV     1   --> A''            
     e( 13 - 13) =    -35.92588  eV     1   --> A'             
     e( 14 - 14) =    -35.86887  eV     1   --> A'             
     e( 15 - 15) =    -15.11745  eV     1   --> A'             
     e( 16 - 16) =    -14.26216  eV     1   --> A''            
     e( 17 - 17) =     -6.24127  eV     1   --> A'             
     e( 18 - 18) =     -4.21668  eV     1   --> A'             
     e( 19 - 19) =     -3.92080  eV     1   --> A''            
     e( 20 - 20) =     -3.08732  eV     1   --> A''            
     e( 21 - 21) =     -2.91324  eV     1   --> A'             
     e( 22 - 22) =     -1.98734  eV     1   --> A''            
     e( 23 - 23) =     -1.68526  eV     1   --> A'             
     e( 24 - 24) =      0.92691  eV     1   --> A'             
     e( 25 - 25) =      1.14445  eV     1   --> A''            
     e( 26 - 26) =      1.49188  eV     1   --> A'             
     e( 27 - 27) =      2.39465  eV     1   --> A''            
     e( 28 - 28) =      4.27314  eV     1   --> A'             
     e( 29 - 29) =      4.41952  eV     1   --> A''            
     e( 30 - 30) =      4.71632  eV     1   --> A'             
     e( 31 - 31) =      5.28451  eV     1   --> A''            
     e( 32 - 32) =      5.77776  eV     1   --> A'             

 **************************************************************************

 **************************************************************************

                    xk=(   0.20667,   0.00000,   0.00000  )

     Band symmetry, C_s (m)     point group:

     e(  1 -  1) =    -61.85472  eV     1   --> A'             
     e(  2 -  3) =    -48.55732  eV     2   --> A'             
     e(  2 -  3) =    -48.55732  eV     2   --> A''            
     e(  4 -  4) =    -48.55628  eV     1   --> A'             
     e(  5 -  5) =    -48.55596  eV     1   --> A''            
     e(  6 -  6) =    -48.51603  eV     1   --> A'             
     e(  7 -  7) =    -48.51580  eV     1   --> A'             
     e(  8 -  8) =    -48.51545  eV     1   --> A''            
     e(  9 -  9) =    -48.51490  eV     1   --> A''            
     e( 10 - 10) =    -48.49868  eV     1   --> A'             
     e( 11 - 11) =    -48.49644  eV     1   --> A''            
     e( 12 - 12) =    -36.05052  eV     1   --> A''            
     e( 13 - 13) =    -35.93036  eV     1   --> A'             
     e( 14 - 14) =    -35.87023  eV     1   --> A'             
     e( 15 - 15) =    -15.09084  eV     1   --> A'             
     e( 16 - 16) =    -14.24763  eV     1   --> A''            
     e( 17 - 17) =     -6.21351  eV     1   --> A'             
     e( 18 - 18) =     -4.26470  eV     1   --> A'             
     e( 19 - 19) =     -3.95530  eV     1   --> A''            
     e( 20 - 20) =     -3.14210  eV     1   --> A''            
     e( 21 - 21) =     -2.89363  eV     1   --> A'             
     e( 22 - 22) =     -1.98629  eV     1   --> A''            
     e( 23 - 23) =     -1.70210  eV     1   --> A'             
     e( 24 - 24) =      0.89119  eV     1   --> A'             
     e( 25 - 25) =      1.13245  eV     1   --> A''            
     e( 26 - 26) =      1.46113  eV     1   --> A'             
     e( 27 - 27) =      2.42253  eV     1   --> A''            
     e( 28 - 28) =      4.30982  eV     1   --> A'             
     e( 29 - 29) =      4.45720  eV     1   --> A''            
     e( 30 - 30) =      4.75406  eV     1   --> A'             
     e( 31 - 31) =      5.32179  eV     1   --> A''            
     e( 32 - 32) =      5.81709  eV     1   --> A'             

 **************************************************************************

 **************************************************************************

                    xk=(   0.21333,   0.00000,   0.00000  )

     Band symmetry, C_s (m)     point group:

     e(  1 -  1) =    -61.85428  eV     1   --> A'             
     e(  2 -  3) =    -48.55731  eV     2   --> A'             
     e(  2 -  3) =    -48.55731  eV     2   --> A''            
     e(  4 -  4) =    -48.55620  eV     1   --> A'             
     e(  5 -  5) =    -48.55589  eV     1   --> A''            
     e(  6 -  6) =    -48.51605  eV     1   --> A'             
     e(  7 -  7) =    -48.51580  eV     1   --> A'             
     e(  8 -  8) =    -48.51549  eV     1   --> A''            
     e(  9 -  9) =    -48.51491  eV     1   --> A''            
     e( 10 - 10) =    -48.49864  eV     1   --> A'             
     e( 11 - 11) =    -48.49640  eV     1   --> A''            
     e( 12 - 12) =    -36.04945  eV     1   --> A''            
     e( 13 - 13) =    -35.93491  eV     1   --> A'             
     e( 14 - 14) =    -35.87163  eV     1   --> A'             
     e( 15 - 15) =    -15.06355  eV     1   --> A'             
     e( 16 - 16) =    -14.23273  eV     1   --> A''            
     e( 17 - 17) =     -6.18558  eV     1   --> A'             
     e( 18 - 18) =     -4.31263  eV     1   --> A'             
     e( 19 - 19) =     -3.98964  eV     1   --> A''            
     e( 20 - 20) =     -3.19796  eV     1   --> A''            
     e( 21 - 21) =     -2.87452  eV     1   --> A'             
     e( 22 - 22) =     -1.98625  eV     1   --> A''            
     e( 23 - 23) =     -1.71953  eV     1   --> A'             
     e( 24 - 24) =      0.85700  eV     1   --> A'             
     e( 25 - 25) =      1.12240  eV     1   --> A''            
     e( 26 - 26) =      1.43096  eV     1   --> A'             
     e( 27 - 27) =      2.45023  eV     1   --> A''            
     e( 28 - 28) =      4.34742  eV     1   --> A'             
     e( 29 - 29) =      4.49601  eV     1   --> A''            
     e( 30 - 30) =      4.79293  eV     1   --> A'             
     e( 31 - 31) =      5.36021  eV     1   --> A''            
     e( 32 - 32) =      5.85712  eV     1   --> A'             

 **************************************************************************

 **************************************************************************

                    xk=(   0.22000,   0.00000,   0.00000  )

     Band symmetry, C_s (m)     point group:

     e(  1 -  1) =    -61.85384  eV     1   --> A'             
     e(  2 -  3) =    -48.55732  eV     2   --> A'             
     e(  2 -  3) =    -48.55732  eV     2   --> A''            
     e(  4 -  4) =    -48.55613  eV     1   --> A'             
     e(  5 -  5) =    -48.55582  eV     1   --> A''            
     e(  6 -  6) =    -48.51607  eV     1   --> A'             
     e(  7 -  7) =    -48.51580  eV     1   --> A'             
     e(  8 -  8) =    -48.51552  eV     1   --> A''            
     e(  9 -  9) =    -48.51492  eV     1   --> A''            
     e( 10 - 10) =    -48.49860  eV     1   --> A'             
     e( 11 - 11) =    -48.49636  eV     1   --> A''            
     e( 12 - 12) =    -36.04836  eV     1   --> A''            
     e( 13 - 13) =    -35.93950  eV     1   --> A'             
     e( 14 - 14) =    -35.87308  eV     1   --> A'             
     e( 15 - 15) =    -15.03562  eV     1   --> A'             
     e( 16 - 16) =    -14.21748  eV     1   --> A''            
     e( 17 - 17) =     -6.15758  eV     1   --> A'             
     e( 18 - 18) =     -4.36033  eV     1   --> A'             
     e( 19 - 19) =     -4.02382  eV     1   --> A''            
     e( 20 - 20) =     -3.25475  eV     1   --> A''            
     e( 21 - 21) =     -2.85610  eV     1   --> A'             
     e( 22 - 22) =     -1.98725  eV     1   --> A''            
     e( 23 - 23) =     -1.73740  eV     1   --> A'             
     e( 24 - 24) =      0.82431  eV     1   --> A'             
     e( 25 - 25) =      1.11429  eV     1   --> A''            
     e( 26 - 26) =      1.40154  eV     1   --> A'             
     e( 27 - 27) =      2.47767  eV     1   --> A''            
     e( 28 - 28) =      4.38596  eV     1   --> A'             
     e( 29 - 29) =      4.53593  eV     1   --> A''            
     e( 30 - 30) =      4.83291  eV     1   --> A'             
     e( 31 - 31) =      5.39977  eV     1   --> A''            
     e( 32 - 32) =      5.89788  eV     1   --> A'             

 **************************************************************************

 **************************************************************************

                    xk=(   0.22667,   0.00000,   0.00000  )

     Band symmetry, C_s (m)     point group:

     e(  1 -  1) =    -61.85339  eV     1   --> A'             
     e(  2 -  3) =    -48.55732  eV     2   --> A'             
     e(  2 -  3) =    -48.55732  eV     2   --> A''            
     e(  4 -  4) =    -48.55605  eV     1   --> A'             
     e(  5 -  5) =    -48.55575  eV     1   --> A''            
     e(  6 -  6) =    -48.51609  eV     1   --> A'             
     e(  7 -  7) =    -48.51580  eV     1   --> A'             
     e(  8 -  8) =    -48.51556  eV     1   --> A''            
     e(  9 -  9) =    -48.51494  eV     1   --> A''            
     e( 10 - 10) =    -48.49856  eV     1   --> A'             
     e( 11 - 11) =    -48.49632  eV     1   --> A''            
     e( 12 - 12) =    -36.04725  eV     1   --> A''            
     e( 13 - 13) =    -35.94413  eV     1   --> A'             
     e( 14 - 14) =    -35.87458  eV     1   --> A'             
     e( 15 - 15) =    -15.00705  eV     1   --> A'             
     e( 16 - 16) =    -14.20190  eV     1   --> A''            
     e( 17 - 17) =     -6.12963  eV     1   --> A'             
     e( 18 - 18) =     -4.40766  eV     1   --> A'             
     e( 19 - 19) =     -4.05786  eV     1   --> A''            
     e( 20 - 20) =     -3.31232  eV     1   --> A''            
     e( 21 - 21) =     -2.83859  eV     1   --> A'             
     e( 22 - 22) =     -1.98929  eV     1   --> A''            
     e( 23 - 23) =     -1.75555  eV     1   --> A'             
[...]
     e( 26 - 26) =      2.47876  eV     1   --> A''            
     e( 27 - 27) =      2.96980  eV     1   --> A''            
     e( 28 - 28) =      4.36061  eV     1   --> A'             
     e( 29 - 29) =      6.29806  eV     1   --> A''            
     e( 30 - 30) =      6.41565  eV     1   --> A'             
     e( 31 - 31) =      7.07532  eV     1   --> A''            
     e( 32 - 32) =      7.91227  eV     1   --> A'             

 **************************************************************************

 **************************************************************************

                    xk=(   0.51167,   0.26847,   0.00000  )

     Band symmetry, C_s (m)     point group:

     e(  1 -  1) =    -61.83582  eV     1   --> A'             
     e(  2 -  2) =    -48.55777  eV     1   --> A''            
     e(  3 -  3) =    -48.55676  eV     1   --> A'             
     e(  4 -  4) =    -48.55277  eV     1   --> A'             
     e(  5 -  5) =    -48.55256  eV     1   --> A''            
     e(  6 -  6) =    -48.51722  eV     1   --> A''            
     e(  7 -  7) =    -48.51653  eV     1   --> A'             
     e(  8 -  8) =    -48.51611  eV     1   --> A'             
     e(  9 -  9) =    -48.51523  eV     1   --> A''            
     e( 10 - 10) =    -48.49707  eV     1   --> A'             
     e( 11 - 11) =    -48.49464  eV     1   --> A''            
     e( 12 - 12) =    -36.13768  eV     1   --> A'             
     e( 13 - 13) =    -36.00389  eV     1   --> A''            
     e( 14 - 14) =    -35.91635  eV     1   --> A'             
     e( 15 - 15) =    -13.63254  eV     1   --> A'             
     e( 16 - 16) =    -13.48048  eV     1   --> A''            
     e( 17 - 17) =     -6.98275  eV     1   --> A'             
     e( 18 - 18) =     -6.08429  eV     1   --> A''            
     e( 19 - 19) =     -5.06622  eV     1   --> A'             
     e( 20 - 20) =     -3.95934  eV     1   --> A''            
     e( 21 - 21) =     -3.11263  eV     1   --> A''            
     e( 22 - 22) =     -1.99279  eV     1   --> A'             
     e( 23 - 23) =     -1.67950  eV     1   --> A'             
     e( 24 - 24) =      0.87398  eV     1   --> A'             
     e( 25 - 25) =      1.27275  eV     1   --> A'             
     e( 26 - 26) =      2.47546  eV     1   --> A''            
     e( 27 - 27) =      2.98094  eV     1   --> A''            
     e( 28 - 28) =      4.35769  eV     1   --> A'             
     e( 29 - 29) =      6.28066  eV     1   --> A''            
     e( 30 - 30) =      6.40614  eV     1   --> A'             
     e( 31 - 31) =      7.07332  eV     1   --> A''            
     e( 32 - 32) =      7.90815  eV     1   --> A'             

 **************************************************************************

 **************************************************************************

                    xk=(   0.51000,   0.27135,   0.00000  )

     Band symmetry, C_s (m)     point group:

     e(  1 -  1) =    -61.83583  eV     1   --> A'             
     e(  2 -  2) =    -48.55778  eV     1   --> A''            
     e(  3 -  3) =    -48.55676  eV     1   --> A'             
     e(  4 -  4) =    -48.55276  eV     1   --> A'             
     e(  5 -  5) =    -48.55255  eV     1   --> A''            
     e(  6 -  6) =    -48.51722  eV     1   --> A''            
     e(  7 -  7) =    -48.51651  eV     1   --> A'             
     e(  8 -  8) =    -48.51612  eV     1   --> A'             
     e(  9 -  9) =    -48.51523  eV     1   --> A''            
     e( 10 - 10) =    -48.49707  eV     1   --> A'             
     e( 11 - 11) =    -48.49464  eV     1   --> A''            
     e( 12 - 12) =    -36.13781  eV     1   --> A'             
     e( 13 - 13) =    -36.00391  eV     1   --> A''            
     e( 14 - 14) =    -35.91609  eV     1   --> A'             
     e( 15 - 15) =    -13.63326  eV     1   --> A'             
     e( 16 - 16) =    -13.48098  eV     1   --> A''            
     e( 17 - 17) =     -6.98482  eV     1   --> A'             
     e( 18 - 18) =     -6.08397  eV     1   --> A''            
     e( 19 - 19) =     -5.06701  eV     1   --> A'             
     e( 20 - 20) =     -3.95684  eV     1   --> A''            
     e( 21 - 21) =     -3.11336  eV     1   --> A''            
     e( 22 - 22) =     -1.97240  eV     1   --> A'             
     e( 23 - 23) =     -1.69114  eV     1   --> A'             
     e( 24 - 24) =      0.87329  eV     1   --> A'             
     e( 25 - 25) =      1.27165  eV     1   --> A'             
     e( 26 - 26) =      2.47257  eV     1   --> A''            
     e( 27 - 27) =      2.99073  eV     1   --> A''            
     e( 28 - 28) =      4.35515  eV     1   --> A'             
     e( 29 - 29) =      6.26545  eV     1   --> A''            
     e( 30 - 30) =      6.39788  eV     1   --> A'             
     e( 31 - 31) =      7.07159  eV     1   --> A''            
     e( 32 - 32) =      7.90458  eV     1   --> A'             

 **************************************************************************

 **************************************************************************

                    xk=(   0.50833,   0.27424,   0.00000  )

     Band symmetry, C_s (m)     point group:

     e(  1 -  1) =    -61.83584  eV     1   --> A'             
     e(  2 -  2) =    -48.55778  eV     1   --> A''            
     e(  3 -  3) =    -48.55677  eV     1   --> A'             
     e(  4 -  4) =    -48.55276  eV     1   --> A'             
     e(  5 -  5) =    -48.55255  eV     1   --> A''            
     e(  6 -  6) =    -48.51722  eV     1   --> A''            
     e(  7 -  7) =    -48.51651  eV     1   --> A'             
     e(  8 -  8) =    -48.51613  eV     1   --> A'             
     e(  9 -  9) =    -48.51523  eV     1   --> A''            
     e( 10 - 10) =    -48.49707  eV     1   --> A'             
     e( 11 - 11) =    -48.49464  eV     1   --> A''            
     e( 12 - 12) =    -36.13792  eV     1   --> A'             
     e( 13 - 13) =    -36.00393  eV     1   --> A''            
     e( 14 - 14) =    -35.91587  eV     1   --> A'             
     e( 15 - 15) =    -13.63387  eV     1   --> A'             
     e( 16 - 16) =    -13.48140  eV     1   --> A''            
     e( 17 - 17) =     -6.98656  eV     1   --> A'             
     e( 18 - 18) =     -6.08369  eV     1   --> A''            
     e( 19 - 19) =     -5.06768  eV     1   --> A'             
     e( 20 - 20) =     -3.95472  eV     1   --> A''            
     e( 21 - 21) =     -3.11399  eV     1   --> A''            
     e( 22 - 22) =     -1.95360  eV     1   --> A'             
     e( 23 - 23) =     -1.70252  eV     1   --> A'             
     e( 24 - 24) =      0.87270  eV     1   --> A'             
     e( 25 - 25) =      1.27072  eV     1   --> A'             
     e( 26 - 26) =      2.47011  eV     1   --> A''            
     e( 27 - 27) =      2.99911  eV     1   --> A''            
     e( 28 - 28) =      4.35299  eV     1   --> A'             
     e( 29 - 29) =      6.25248  eV     1   --> A''            
     e( 30 - 30) =      6.39086  eV     1   --> A'             
     e( 31 - 31) =      7.07014  eV     1   --> A''            
     e( 32 - 32) =      7.90155  eV     1   --> A'             

 **************************************************************************

 **************************************************************************

                    xk=(   0.50667,   0.27713,   0.00000  )

     Band symmetry, C_s (m)     point group:

     e(  1 -  1) =    -61.83585  eV     1   --> A'             
     e(  2 -  2) =    -48.55779  eV     1   --> A''            
     e(  3 -  3) =    -48.55677  eV     1   --> A'             
     e(  4 -  4) =    -48.55276  eV     1   --> A'             
     e(  5 -  5) =    -48.55255  eV     1   --> A''            
     e(  6 -  6) =    -48.51722  eV     1   --> A''            
     e(  7 -  7) =    -48.51650  eV     1   --> A'             
     e(  8 -  8) =    -48.51614  eV     1   --> A'             
     e(  9 -  9) =    -48.51523  eV     1   --> A''            
     e( 10 - 10) =    -48.49707  eV     1   --> A'             
     e( 11 - 11) =    -48.49465  eV     1   --> A''            
     e( 12 - 12) =    -36.13801  eV     1   --> A'             
     e( 13 - 13) =    -36.00395  eV     1   --> A''            
     e( 14 - 14) =    -35.91569  eV     1   --> A'             
     e( 15 - 15) =    -13.63437  eV     1   --> A'             
     e( 16 - 16) =    -13.48175  eV     1   --> A''            
     e( 17 - 17) =     -6.98799  eV     1   --> A'             
     e( 18 - 18) =     -6.08347  eV     1   --> A''            
     e( 19 - 19) =     -5.06823  eV     1   --> A'             
     e( 20 - 20) =     -3.95296  eV     1   --> A''            
     e( 21 - 21) =     -3.11451  eV     1   --> A''            
     e( 22 - 22) =     -1.93673  eV     1   --> A'             
     e( 23 - 23) =     -1.71329  eV     1   --> A'             
     e( 24 - 24) =      0.87220  eV     1   --> A'             
     e( 25 - 25) =      1.26997  eV     1   --> A'             
     e( 26 - 26) =      2.46809  eV     1   --> A''            
     e( 27 - 27) =      3.00603  eV     1   --> A''            
     e( 28 - 28) =      4.35122  eV     1   --> A'             
     e( 29 - 29) =      6.24180  eV     1   --> A''            
     e( 30 - 30) =      6.38511  eV     1   --> A'             
     e( 31 - 31) =      7.06896  eV     1   --> A''            
     e( 32 - 32) =      7.89908  eV     1   --> A'             

 **************************************************************************

 **************************************************************************

                    xk=(   0.50500,   0.28001,   0.00000  )

     Band symmetry, C_s (m)     point group:

     e(  1 -  1) =    -61.83585  eV     1   --> A'             
     e(  2 -  2) =    -48.55779  eV     1   --> A''            
     e(  3 -  3) =    -48.55678  eV     1   --> A'             
     e(  4 -  4) =    -48.55276  eV     1   --> A'             
     e(  5 -  5) =    -48.55255  eV     1   --> A''            
     e(  6 -  6) =    -48.51722  eV     1   --> A''            
     e(  7 -  7) =    -48.51649  eV     1   --> A'             
     e(  8 -  8) =    -48.51614  eV     1   --> A'             
     e(  9 -  9) =    -48.51523  eV     1   --> A''            
     e( 10 - 10) =    -48.49707  eV     1   --> A'             
     e( 11 - 11) =    -48.49465  eV     1   --> A''            
     e( 12 - 12) =    -36.13808  eV     1   --> A'             
     e( 13 - 13) =    -36.00396  eV     1   --> A''            
     e( 14 - 14) =    -35.91555  eV     1   --> A'             
     e( 15 - 15) =    -13.63475  eV     1   --> A'             
     e( 16 - 16) =    -13.48201  eV     1   --> A''            
     e( 17 - 17) =     -6.98910  eV     1   --> A'             
     e( 18 - 18) =     -6.08330  eV     1   --> A''            
     e( 19 - 19) =     -5.06866  eV     1   --> A'             
     e( 20 - 20) =     -3.95159  eV     1   --> A''            
     e( 21 - 21) =     -3.11493  eV     1   --> A''            
     e( 22 - 22) =     -1.92230  eV     1   --> A'             
     e( 23 - 23) =     -1.72296  eV     1   --> A'             
     e( 24 - 24) =      0.87180  eV     1   --> A'             
     e( 25 - 25) =      1.26938  eV     1   --> A'             
     e( 26 - 26) =      2.46651  eV     1   --> A''            
     e( 27 - 27) =      3.01146  eV     1   --> A''            
     e( 28 - 28) =      4.34984  eV     1   --> A'             
     e( 29 - 29) =      6.23346  eV     1   --> A''            
     e( 30 - 30) =      6.38063  eV     1   --> A'             
     e( 31 - 31) =      7.06804  eV     1   --> A''            
     e( 32 - 32) =      7.89715  eV     1   --> A'             

 **************************************************************************

 **************************************************************************

                    xk=(   0.50333,   0.28290,   0.00000  )

     Band symmetry, C_s (m)     point group:

     e(  1 -  1) =    -61.83586  eV     1   --> A'             
     e(  2 -  2) =    -48.55779  eV     1   --> A''            
     e(  3 -  3) =    -48.55678  eV     1   --> A'             
     e(  4 -  4) =    -48.55276  eV     1   --> A'             
     e(  5 -  5) =    -48.55255  eV     1   --> A''            
     e(  6 -  6) =    -48.51722  eV     1   --> A''            
     e(  7 -  7) =    -48.51649  eV     1   --> A'             
     e(  8 -  8) =    -48.51615  eV     1   --> A'             
     e(  9 -  9) =    -48.51523  eV     1   --> A''            
     e( 10 - 10) =    -48.49707  eV     1   --> A'             
     e( 11 - 11) =    -48.49465  eV     1   --> A''            
     e( 12 - 12) =    -36.13813  eV     1   --> A'             
     e( 13 - 13) =    -36.00397  eV     1   --> A''            
     e( 14 - 14) =    -35.91545  eV     1   --> A'             
     e( 15 - 15) =    -13.63503  eV     1   --> A'             
     e( 16 - 16) =    -13.48221  eV     1   --> A''            
     e( 17 - 17) =     -6.98989  eV     1   --> A'             
     e( 18 - 18) =     -6.08318  eV     1   --> A''            
     e( 19 - 19) =     -5.06897  eV     1   --> A'             
     e( 20 - 20) =     -3.95061  eV     1   --> A''            
     e( 21 - 21) =     -3.11522  eV     1   --> A''            
     e( 22 - 22) =     -1.91103  eV     1   --> A'             
     e( 23 - 23) =     -1.73082  eV     1   --> A'             
     e( 24 - 24) =      0.87152  eV     1   --> A'             
     e( 25 - 25) =      1.26897  eV     1   --> A'             
     e( 26 - 26) =      2.46538  eV     1   --> A''            
     e( 27 - 27) =      3.01536  eV     1   --> A''            
     e( 28 - 28) =      4.34884  eV     1   --> A'             
     e( 29 - 29) =      6.22748  eV     1   --> A''            
     e( 30 - 30) =      6.37742  eV     1   --> A'             
     e( 31 - 31) =      7.06739  eV     1   --> A''            
     e( 32 - 32) =      7.89577  eV     1   --> A'             

 **************************************************************************

 **************************************************************************

                    xk=(   0.50167,   0.28579,   0.00000  )

     Band symmetry, C_s (m)     point group:

     e(  1 -  1) =    -61.83586  eV     1   --> A'             
     e(  2 -  2) =    -48.55779  eV     1   --> A''            
     e(  3 -  3) =    -48.55678  eV     1   --> A'             
     e(  4 -  4) =    -48.55276  eV     1   --> A'             
     e(  5 -  5) =    -48.55254  eV     1   --> A''            
     e(  6 -  6) =    -48.51722  eV     1   --> A''            
     e(  7 -  7) =    -48.51648  eV     1   --> A'             
     e(  8 -  8) =    -48.51615  eV     1   --> A'             
     e(  9 -  9) =    -48.51523  eV     1   --> A''            
     e( 10 - 10) =    -48.49707  eV     1   --> A'             
     e( 11 - 11) =    -48.49465  eV     1   --> A''            
     e( 12 - 12) =    -36.13815  eV     1   --> A'             
     e( 13 - 13) =    -36.00398  eV     1   --> A''            
     e( 14 - 14) =    -35.91539  eV     1   --> A'             
     e( 15 - 15) =    -13.63520  eV     1   --> A'             
     e( 16 - 16) =    -13.48232  eV     1   --> A''            
     e( 17 - 17) =     -6.99037  eV     1   --> A'             
     e( 18 - 18) =     -6.08310  eV     1   --> A''            
     e( 19 - 19) =     -5.06915  eV     1   --> A'             
     e( 20 - 20) =     -3.95002  eV     1   --> A''            
     e( 21 - 21) =     -3.11540  eV     1   --> A''            
     e( 22 - 22) =     -1.90376  eV     1   --> A'             
     e( 23 - 23) =     -1.73606  eV     1   --> A'             
     e( 24 - 24) =      0.87134  eV     1   --> A'             
     e( 25 - 25) =      1.26872  eV     1   --> A'             
     e( 26 - 26) =      2.46470  eV     1   --> A''            
     e( 27 - 27) =      3.01771  eV     1   --> A''            
     e( 28 - 28) =      4.34825  eV     1   --> A'             
     e( 29 - 29) =      6.22388  eV     1   --> A''            
     e( 30 - 30) =      6.37550  eV     1   --> A'             
     e( 31 - 31) =      7.06700  eV     1   --> A''            
     e( 32 - 32) =      7.89495  eV     1   --> A'             

 **************************************************************************

 **************************************************************************

                    xk=(   0.50000,   0.28868,   0.00000  )

     point group C_2v (mm2) 
     there are  4 classes
     the character table:

       E     C2    s_v   s_v' 
A_1    1.00  1.00  1.00  1.00
A_2    1.00  1.00 -1.00 -1.00
B_1    1.00 -1.00  1.00 -1.00
B_2    1.00 -1.00 -1.00  1.00

     the symmetry operations in each class and the name of the first element:

     E        1
                                                                 
     C2       2
                                                                 
     s_v      3
                                                                 
     s_v'     4
                                                                 

     Band symmetry, C_2v (mm2)  point group:

     e(  1 -  1) =    -61.83586  eV     1   --> A_1  D_1  S_1  
     e(  2 -  2) =    -48.55779  eV     1   --> B_2  D_4  S_4  
     e(  3 -  3) =    -48.55678  eV     1   --> A_1  D_1  S_1  
     e(  4 -  4) =    -48.55276  eV     1   --> B_1  D_3  S_3  
     e(  5 -  5) =    -48.55255  eV     1   --> A_2  D_2  S_2  
     e(  6 -  6) =    -48.51722  eV     1   --> B_2  D_4  S_4  
     e(  7 -  7) =    -48.51648  eV     1   --> B_1  D_3  S_3  
     e(  8 -  8) =    -48.51615  eV     1   --> A_1  D_1  S_1  
     e(  9 -  9) =    -48.51523  eV     1   --> A_2  D_2  S_2  
     e( 10 - 10) =    -48.49707  eV     1   --> A_1  D_1  S_1  
     e( 11 - 11) =    -48.49465  eV     1   --> B_2  D_4  S_4  
     e( 12 - 12) =    -36.13816  eV     1   --> A_1  D_1  S_1  
     e( 13 - 13) =    -36.00398  eV     1   --> B_2  D_4  S_4  
     e( 14 - 14) =    -35.91537  eV     1   --> B_1  D_3  S_3  
     e( 15 - 15) =    -13.63525  eV     1   --> A_1  D_1  S_1  
     e( 16 - 16) =    -13.48236  eV     1   --> B_2  D_4  S_4  
     e( 17 - 17) =     -6.99053  eV     1   --> A_1  D_1  S_1  
     e( 18 - 18) =     -6.08308  eV     1   --> B_2  D_4  S_4  
     e( 19 - 19) =     -5.06921  eV     1   --> A_1  D_1  S_1  
     e( 20 - 20) =     -3.94982  eV     1   --> A_2  D_2  S_2  
     e( 21 - 21) =     -3.11546  eV     1   --> B_2  D_4  S_4  
     e( 22 - 22) =     -1.90122  eV     1   --> A_1  D_1  S_1  
     e( 23 - 23) =     -1.73791  eV     1   --> B_1  D_3  S_3  
     e( 24 - 24) =      0.87128  eV     1   --> B_1  D_3  S_3  
     e( 25 - 25) =      1.26864  eV     1   --> A_1  D_1  S_1  
     e( 26 - 26) =      2.46447  eV     1   --> B_2  D_4  S_4  
     e( 27 - 27) =      3.01849  eV     1   --> A_2  D_2  S_2  
     e( 28 - 28) =      4.34805  eV     1   --> A_1  D_1  S_1  
     e( 29 - 29) =      6.22268  eV     1   --> B_2  D_4  S_4  
     e( 30 - 30) =      6.37486  eV     1   --> A_1  D_1  S_1  
     e( 31 - 31) =      7.06687  eV     1   --> B_2  D_4  S_4  
     e( 32 - 32) =      7.89467  eV     1   --> A_1  D_1  S_1  

 **************************************************************************
 
     BANDS        :     43.65s CPU     49.44s WALL

 
   This run was terminated on:  22:29:55  13Jun2022            

=------------------------------------------------------------------------------=
   JOB DONE.
=------------------------------------------------------------------------------=
