
     Program PWSCF v.6.6 starts on 13Jun2022 at 22:25:15 

     This program is part of the open-source Quantum ESPRESSO suite
     for quantum simulation of materials; please cite
         "P. Giannozzi et al., J. Phys.:Condens. Matter 21 395502 (2009);
         "P. Giannozzi et al., J. Phys.:Condens. Matter 29 465901 (2017);
          URL http://www.quantum-espresso.org", 
     in publications or presentations arising from this work. More details at
     http://www.quantum-espresso.org/quote

     Parallel version (MPI), running on    40 processors

     MPI processes distributed on     1 nodes
     K-points division:     npool     =       4
     R & G space division:  proc/nbgrp/npool/nimage =      10
     Fft bands division:     nmany     =       1
     Waiting for input...
     Reading input from standard input
Warning: card &IONS ignored
Warning: card / ignored
Warning: card &CELL ignored
Warning: card PRESS_CONV_THR=0.1 ignored
Warning: card CELL_DOFREE='2DXY' ignored
Warning: card / ignored

     Current dimensions of program PWSCF are:
     Max number of different atomic species (ntypx) = 10
     Max number of k-points (npk) =  40000
     Max angular momentum in pseudopotentials (lmaxx) =  3

     Atomic positions and unit cell read from directory:
     ./mose2.save/
     Atomic positions from file used, from input discarded
 
     file Mo.pbesol-spn-kjpaw_psl.1.0.0.UPF: wavefunction(s)  4S 4D renormalized
     file Se.pbesol-dn-kjpaw_psl.1.0.0.UPF: wavefunction(s)  4S 4P 3D renormalized

     Subspace diagonalization in iterative solution of the eigenvalue problem:
     one sub-group per band group will be used
     scalapack distributed-memory algorithm (size of sub-group:  3*  3 procs)

 
     Parallelization info
     --------------------
     sticks:   dense  smooth     PW     G-vecs:    dense   smooth      PW
     Min         106     106     30                22894    22894    3400
     Max         107     107     31                22929    22929    3425
     Sum        1069    1069    301               229233   229233   34069
 


     bravais-lattice index     =            4
     lattice parameter (alat)  =       6.1734  a.u.
     unit-cell volume          =    1646.5987 (a.u.)^3
     number of atoms/cell      =            3
     number of atomic types    =            2
     number of electrons       =        46.00
     number of Kohn-Sham states=           32
     kinetic-energy cutoff     =     102.0000  Ry
     charge density cutoff     =     408.0000  Ry
     Exchange-correlation= SLA PW PSX PSC
                           (   1   4  10   8   0   0   0)

     celldm(1)=   6.173437  celldm(2)=   0.000000  celldm(3)=   8.081203
     celldm(4)=   0.000000  celldm(5)=   0.000000  celldm(6)=   0.000000

     crystal axes: (cart. coord. in units of alat)
               a(1) = (   1.000000   0.000000   0.000000 )  
               a(2) = (  -0.500000   0.866025   0.000000 )  
               a(3) = (   0.000000   0.000000   8.081203 )  

     reciprocal axes: (cart. coord. in units 2 pi/alat)
               b(1) = (  1.000000  0.577350  0.000000 )  
               b(2) = (  0.000000  1.154701  0.000000 )  
               b(3) = (  0.000000  0.000000  0.123744 )  


     PseudoPot. # 1 for Mo read from file:
     /scratch1/fanchem/MoSe2/pp/Mo.pbesol-spn-kjpaw_psl.1.0.0.UPF
     MD5 check sum: 2f69e612011640a3284f00f973390535
     Pseudo is Projector augmented-wave + core cor, Zval = 14.0
     Generated using "atomic" code by A. Dal Corso v.6.3
     Shape of augmentation charge: PSQ
     Using radial grid of 1229 points,  6 beta functions with: 
                l(1) =   0
                l(2) =   0
                l(3) =   1
                l(4) =   1
                l(5) =   2
                l(6) =   2
     Q(r) pseudized with 0 coefficients 


     PseudoPot. # 2 for Se read from file:
     /scratch1/fanchem/MoSe2/pp/Se.pbesol-dn-kjpaw_psl.1.0.0.UPF
     MD5 check sum: 96421e4d850e5e17b279567c6a17bf72
     Pseudo is Projector augmented-wave + core cor, Zval = 16.0
     Generated using "atomic" code by A. Dal Corso v.6.3
     Shape of augmentation charge: PSQ
     Using radial grid of 1211 points,  6 beta functions with: 
                l(1) =   0
                l(2) =   0
                l(3) =   1
                l(4) =   1
                l(5) =   2
                l(6) =   2
     Q(r) pseudized with 0 coefficients 


     atomic species   valence    mass     pseudopotential
        Mo            14.00    95.95000     Mo( 1.00)
        Se            16.00    78.96000     Se( 1.00)

     12 Sym. Ops. (no inversion) found


                                    s                        frac. trans.

      isym =  1     identity                                     

 cryst.   s( 1) = (     1          0          0      )
                  (     0          1          0      )
                  (     0          0          1      )

 cart.    s( 1) = (  1.0000000  0.0000000  0.0000000 )
                  (  0.0000000  1.0000000  0.0000000 )
                  (  0.0000000  0.0000000  1.0000000 )


      isym =  2     180 deg rotation - cart. axis [0,1,0]        

 cryst.   s( 2) = (    -1          0          0      )
                  (     1          1          0      )
                  (     0          0         -1      )

 cart.    s( 2) = ( -1.0000000  0.0000000  0.0000000 )
                  (  0.0000000  1.0000000  0.0000000 )
                  (  0.0000000  0.0000000 -1.0000000 )


      isym =  3     120 deg rotation - cryst. axis [0,0,1]       

 cryst.   s( 3) = (     0          1          0      )
                  (    -1         -1          0      )
                  (     0          0          1      )

 cart.    s( 3) = ( -0.5000000 -0.8660254  0.0000000 )
                  (  0.8660254 -0.5000000  0.0000000 )
                  (  0.0000000  0.0000000  1.0000000 )


      isym =  4     120 deg rotation - cryst. axis [0,0,-1]      

 cryst.   s( 4) = (    -1         -1          0      )
                  (     1          0          0      )
                  (     0          0          1      )

 cart.    s( 4) = ( -0.5000000  0.8660254  0.0000000 )
                  ( -0.8660254 -0.5000000  0.0000000 )
                  (  0.0000000  0.0000000  1.0000000 )


      isym =  5     180 deg rotation - cryst. axis [1,-1,0]      

 cryst.   s( 5) = (     0         -1          0      )
                  (    -1          0          0      )
                  (     0          0         -1      )

 cart.    s( 5) = (  0.5000000 -0.8660254  0.0000000 )
                  ( -0.8660254 -0.5000000  0.0000000 )
                  (  0.0000000  0.0000000 -1.0000000 )


      isym =  6     180 deg rotation - cryst. axis [2,1,0]       

 cryst.   s( 6) = (     1          1          0      )
                  (     0         -1          0      )
                  (     0          0         -1      )

 cart.    s( 6) = (  0.5000000  0.8660254  0.0000000 )
                  (  0.8660254 -0.5000000  0.0000000 )
                  (  0.0000000  0.0000000 -1.0000000 )


      isym =  7     inv. 180 deg rotation - cart. axis [0,0,1]   

 cryst.   s( 7) = (     1          0          0      )
                  (     0          1          0      )
                  (     0          0         -1      )

 cart.    s( 7) = (  1.0000000  0.0000000  0.0000000 )
                  (  0.0000000  1.0000000  0.0000000 )
                  (  0.0000000  0.0000000 -1.0000000 )


      isym =  8     inv. 180 deg rotation - cart. axis [1,0,0]   

 cryst.   s( 8) = (    -1          0          0      )
                  (     1          1          0      )
                  (     0          0          1      )

 cart.    s( 8) = ( -1.0000000  0.0000000  0.0000000 )
                  (  0.0000000  1.0000000  0.0000000 )
                  (  0.0000000  0.0000000  1.0000000 )


      isym =  9     inv.  60 deg rotation - cryst. axis [0,0,1]  

 cryst.   s( 9) = (    -1         -1          0      )
                  (     1          0          0      )
                  (     0          0         -1      )

 cart.    s( 9) = ( -0.5000000  0.8660254  0.0000000 )
                  ( -0.8660254 -0.5000000  0.0000000 )
                  (  0.0000000  0.0000000 -1.0000000 )


      isym = 10     inv.  60 deg rotation - cryst. axis [0,0,-1] 

 cryst.   s(10) = (     0          1          0      )
                  (    -1         -1          0      )
                  (     0          0         -1      )

 cart.    s(10) = ( -0.5000000 -0.8660254  0.0000000 )
                  (  0.8660254 -0.5000000  0.0000000 )
                  (  0.0000000  0.0000000 -1.0000000 )


      isym = 11     inv. 180 deg rotation - cryst. axis [0,1,0]  

 cryst.   s(11) = (     1          1          0      )
                  (     0         -1          0      )
                  (     0          0          1      )

 cart.    s(11) = (  0.5000000  0.8660254  0.0000000 )
                  (  0.8660254 -0.5000000  0.0000000 )
                  (  0.0000000  0.0000000  1.0000000 )


      isym = 12     inv. 180 deg rotation - cryst. axis [1,1,0]  

 cryst.   s(12) = (     0         -1          0      )
                  (    -1          0          0      )
                  (     0          0          1      )

 cart.    s(12) = (  0.5000000 -0.8660254  0.0000000 )
                  ( -0.8660254 -0.5000000  0.0000000 )
                  (  0.0000000  0.0000000  1.0000000 )


     point group D_3h (-62m)
     there are  6 classes
     the character table:

       E     2C3   3C2   s_h   2S3   3s_v 
A'_1   1.00  1.00  1.00  1.00  1.00  1.00
A'_2   1.00  1.00 -1.00  1.00  1.00 -1.00
E'     2.00 -1.00  0.00  2.00 -1.00  0.00
A''1   1.00  1.00  1.00 -1.00 -1.00 -1.00
A''2   1.00  1.00 -1.00 -1.00 -1.00  1.00
E''    2.00 -1.00  0.00 -2.00  1.00  0.00

     the symmetry operations in each class and the name of the first element:

     E        1
          identity                                               
     2C3      3    4
          120 deg rotation - cryst. axis [0,0,1]                 
     3C2      2    6    5
          180 deg rotation - cart. axis [0,1,0]                  
     s_h      7
          inv. 180 deg rotation - cart. axis [0,0,1]             
     2S3      9   10
          inv.  60 deg rotation - cryst. axis [0,0,1]            
     3s_v     8   11   12
          inv. 180 deg rotation - cart. axis [1,0,0]             

   Cartesian axes

     site n.     atom                  positions (alat units)
         1           Mo  tau(   1) = (  -0.0000000   0.5773503   4.0406015  )
         2           Se  tau(   2) = (   0.5000000   0.2886751   3.5309875  )
         3           Se  tau(   3) = (   0.5000000   0.2886751   4.5502155  )

   Crystallographic axes

     site n.     atom                  positions (cryst. coord.)
         1           Mo  tau(   1) = (  0.3333333  0.6666667  0.5000000  )
         2           Se  tau(   2) = (  0.6666667  0.3333333  0.4369383  )
         3           Se  tau(   3) = (  0.6666667  0.3333333  0.5630617  )

     number of k points=   101
                       cart. coord. in units 2pi/alat
        k(    1) = (   0.0000000   0.0000000   0.0000000), wk =   0.0198020
        k(    2) = (   0.0050000   0.0028868   0.0000000), wk =   0.0198020
        k(    3) = (   0.0100000   0.0057735   0.0000000), wk =   0.0198020
        k(    4) = (   0.0150000   0.0086603   0.0000000), wk =   0.0198020
        k(    5) = (   0.0200000   0.0115470   0.0000000), wk =   0.0198020
        k(    6) = (   0.0250000   0.0144338   0.0000000), wk =   0.0198020
        k(    7) = (   0.0300000   0.0173205   0.0000000), wk =   0.0198020
        k(    8) = (   0.0350000   0.0202073   0.0000000), wk =   0.0198020
        k(    9) = (   0.0400000   0.0230940   0.0000000), wk =   0.0198020
        k(   10) = (   0.0450000   0.0259808   0.0000000), wk =   0.0198020
        k(   11) = (   0.0500000   0.0288675   0.0000000), wk =   0.0198020
        k(   12) = (   0.0550000   0.0317543   0.0000000), wk =   0.0198020
        k(   13) = (   0.0600000   0.0346410   0.0000000), wk =   0.0198020
        k(   14) = (   0.0650000   0.0375278   0.0000000), wk =   0.0198020
        k(   15) = (   0.0700000   0.0404145   0.0000000), wk =   0.0198020
        k(   16) = (   0.0750000   0.0433013   0.0000000), wk =   0.0198020
        k(   17) = (   0.0800000   0.0461880   0.0000000), wk =   0.0198020
        k(   18) = (   0.0850000   0.0490748   0.0000000), wk =   0.0198020
        k(   19) = (   0.0900000   0.0519615   0.0000000), wk =   0.0198020
        k(   20) = (   0.0950000   0.0548483   0.0000000), wk =   0.0198020
        k(   21) = (   0.1000000   0.0577350   0.0000000), wk =   0.0198020
        k(   22) = (   0.1050000   0.0606218   0.0000000), wk =   0.0198020
        k(   23) = (   0.1100000   0.0635085   0.0000000), wk =   0.0198020
        k(   24) = (   0.1150000   0.0663953   0.0000000), wk =   0.0198020
        k(   25) = (   0.1200000   0.0692820   0.0000000), wk =   0.0198020
        k(   26) = (   0.1250000   0.0721688   0.0000000), wk =   0.0198020
        k(   27) = (   0.1300000   0.0750555   0.0000000), wk =   0.0198020
        k(   28) = (   0.1350000   0.0779423   0.0000000), wk =   0.0198020
        k(   29) = (   0.1400000   0.0808290   0.0000000), wk =   0.0198020
        k(   30) = (   0.1450000   0.0837158   0.0000000), wk =   0.0198020
        k(   31) = (   0.1500000   0.0866025   0.0000000), wk =   0.0198020
        k(   32) = (   0.1550000   0.0894893   0.0000000), wk =   0.0198020
        k(   33) = (   0.1600000   0.0923760   0.0000000), wk =   0.0198020
        k(   34) = (   0.1650000   0.0952628   0.0000000), wk =   0.0198020
        k(   35) = (   0.1700000   0.0981495   0.0000000), wk =   0.0198020
        k(   36) = (   0.1750000   0.1010363   0.0000000), wk =   0.0198020
        k(   37) = (   0.1800000   0.1039230   0.0000000), wk =   0.0198020
        k(   38) = (   0.1850000   0.1068098   0.0000000), wk =   0.0198020
        k(   39) = (   0.1900000   0.1096966   0.0000000), wk =   0.0198020
        k(   40) = (   0.1950000   0.1125833   0.0000000), wk =   0.0198020
        k(   41) = (   0.2000000   0.1154701   0.0000000), wk =   0.0198020
        k(   42) = (   0.2050000   0.1183568   0.0000000), wk =   0.0198020
        k(   43) = (   0.2100000   0.1212436   0.0000000), wk =   0.0198020
        k(   44) = (   0.2150000   0.1241303   0.0000000), wk =   0.0198020
        k(   45) = (   0.2200000   0.1270171   0.0000000), wk =   0.0198020
        k(   46) = (   0.2250000   0.1299038   0.0000000), wk =   0.0198020
        k(   47) = (   0.2300000   0.1327906   0.0000000), wk =   0.0198020
        k(   48) = (   0.2350000   0.1356773   0.0000000), wk =   0.0198020
        k(   49) = (   0.2400000   0.1385641   0.0000000), wk =   0.0198020
        k(   50) = (   0.2450000   0.1414508   0.0000000), wk =   0.0198020
        k(   51) = (   0.2500000   0.1443376   0.0000000), wk =   0.0198020
        k(   52) = (   0.2550000   0.1472243   0.0000000), wk =   0.0198020
        k(   53) = (   0.2600000   0.1501111   0.0000000), wk =   0.0198020
        k(   54) = (   0.2650000   0.1529978   0.0000000), wk =   0.0198020
        k(   55) = (   0.2700000   0.1558846   0.0000000), wk =   0.0198020
        k(   56) = (   0.2750000   0.1587713   0.0000000), wk =   0.0198020
        k(   57) = (   0.2800000   0.1616581   0.0000000), wk =   0.0198020
        k(   58) = (   0.2850000   0.1645448   0.0000000), wk =   0.0198020
        k(   59) = (   0.2900000   0.1674316   0.0000000), wk =   0.0198020
        k(   60) = (   0.2950000   0.1703183   0.0000000), wk =   0.0198020
        k(   61) = (   0.3000000   0.1732051   0.0000000), wk =   0.0198020
        k(   62) = (   0.3050000   0.1760918   0.0000000), wk =   0.0198020
        k(   63) = (   0.3100000   0.1789786   0.0000000), wk =   0.0198020
        k(   64) = (   0.3150000   0.1818653   0.0000000), wk =   0.0198020
        k(   65) = (   0.3200000   0.1847521   0.0000000), wk =   0.0198020
        k(   66) = (   0.3250000   0.1876388   0.0000000), wk =   0.0198020
        k(   67) = (   0.3300000   0.1905256   0.0000000), wk =   0.0198020
        k(   68) = (   0.3350000   0.1934123   0.0000000), wk =   0.0198020
        k(   69) = (   0.3400000   0.1962991   0.0000000), wk =   0.0198020
        k(   70) = (   0.3450000   0.1991858   0.0000000), wk =   0.0198020
        k(   71) = (   0.3500000   0.2020726   0.0000000), wk =   0.0198020
        k(   72) = (   0.3550000   0.2049593   0.0000000), wk =   0.0198020
        k(   73) = (   0.3600000   0.2078461   0.0000000), wk =   0.0198020
        k(   74) = (   0.3650000   0.2107328   0.0000000), wk =   0.0198020
        k(   75) = (   0.3700000   0.2136196   0.0000000), wk =   0.0198020
        k(   76) = (   0.3750000   0.2165064   0.0000000), wk =   0.0198020
        k(   77) = (   0.3800000   0.2193931   0.0000000), wk =   0.0198020
        k(   78) = (   0.3850000   0.2222799   0.0000000), wk =   0.0198020
        k(   79) = (   0.3900000   0.2251666   0.0000000), wk =   0.0198020
        k(   80) = (   0.3950000   0.2280534   0.0000000), wk =   0.0198020
        k(   81) = (   0.4000000   0.2309401   0.0000000), wk =   0.0198020
        k(   82) = (   0.4050000   0.2338269   0.0000000), wk =   0.0198020
        k(   83) = (   0.4100000   0.2367136   0.0000000), wk =   0.0198020
        k(   84) = (   0.4150000   0.2396004   0.0000000), wk =   0.0198020
        k(   85) = (   0.4200000   0.2424871   0.0000000), wk =   0.0198020
        k(   86) = (   0.4250000   0.2453739   0.0000000), wk =   0.0198020
        k(   87) = (   0.4300000   0.2482606   0.0000000), wk =   0.0198020
        k(   88) = (   0.4350000   0.2511474   0.0000000), wk =   0.0198020
        k(   89) = (   0.4400000   0.2540341   0.0000000), wk =   0.0198020
        k(   90) = (   0.4450000   0.2569209   0.0000000), wk =   0.0198020
        k(   91) = (   0.4500000   0.2598076   0.0000000), wk =   0.0198020
        k(   92) = (   0.4550000   0.2626944   0.0000000), wk =   0.0198020
        k(   93) = (   0.4600000   0.2655811   0.0000000), wk =   0.0198020
        k(   94) = (   0.4650000   0.2684679   0.0000000), wk =   0.0198020
        k(   95) = (   0.4700000   0.2713546   0.0000000), wk =   0.0198020
        k(   96) = (   0.4750000   0.2742414   0.0000000), wk =   0.0198020
        k(   97) = (   0.4800000   0.2771281   0.0000000), wk =   0.0198020
        k(   98) = (   0.4850000   0.2800149   0.0000000), wk =   0.0198020
        k(   99) = (   0.4900000   0.2829016   0.0000000), wk =   0.0198020
        k(  100) = (   0.4950000   0.2857884   0.0000000), wk =   0.0198020
        k(  101) = (   0.5000000   0.2886751   0.0000000), wk =   0.0198020

                       cryst. coord.
        k(    1) = (   0.0000000   0.0000000   0.0000000), wk =   0.0198020
        k(    2) = (   0.0050000   0.0000000   0.0000000), wk =   0.0198020
        k(    3) = (   0.0100000   0.0000000   0.0000000), wk =   0.0198020
        k(    4) = (   0.0150000   0.0000000   0.0000000), wk =   0.0198020
        k(    5) = (   0.0200000   0.0000000   0.0000000), wk =   0.0198020
        k(    6) = (   0.0250000   0.0000000   0.0000000), wk =   0.0198020
        k(    7) = (   0.0300000   0.0000000   0.0000000), wk =   0.0198020
        k(    8) = (   0.0350000   0.0000000   0.0000000), wk =   0.0198020
        k(    9) = (   0.0400000   0.0000000   0.0000000), wk =   0.0198020
        k(   10) = (   0.0450000   0.0000000   0.0000000), wk =   0.0198020
        k(   11) = (   0.0500000   0.0000000   0.0000000), wk =   0.0198020
        k(   12) = (   0.0550000   0.0000000   0.0000000), wk =   0.0198020
        k(   13) = (   0.0600000   0.0000000   0.0000000), wk =   0.0198020
        k(   14) = (   0.0650000   0.0000000   0.0000000), wk =   0.0198020
        k(   15) = (   0.0700000   0.0000000   0.0000000), wk =   0.0198020
        k(   16) = (   0.0750000   0.0000000   0.0000000), wk =   0.0198020
        k(   17) = (   0.0800000   0.0000000   0.0000000), wk =   0.0198020
        k(   18) = (   0.0850000   0.0000000   0.0000000), wk =   0.0198020
        k(   19) = (   0.0900000   0.0000000   0.0000000), wk =   0.0198020
        k(   20) = (   0.0950000   0.0000000   0.0000000), wk =   0.0198020
        k(   21) = (   0.1000000   0.0000000   0.0000000), wk =   0.0198020
        k(   22) = (   0.1050000   0.0000000   0.0000000), wk =   0.0198020
        k(   23) = (   0.1100000   0.0000000   0.0000000), wk =   0.0198020
        k(   24) = (   0.1150000   0.0000000   0.0000000), wk =   0.0198020
        k(   25) = (   0.1200000   0.0000000   0.0000000), wk =   0.0198020
        k(   26) = (   0.1250000   0.0000000   0.0000000), wk =   0.0198020
        k(   27) = (   0.1300000   0.0000000   0.0000000), wk =   0.0198020
        k(   28) = (   0.1350000   0.0000000   0.0000000), wk =   0.0198020
        k(   29) = (   0.1400000   0.0000000   0.0000000), wk =   0.0198020
        k(   30) = (   0.1450000   0.0000000   0.0000000), wk =   0.0198020
        k(   31) = (   0.1500000   0.0000000   0.0000000), wk =   0.0198020
        k(   32) = (   0.1550000   0.0000000   0.0000000), wk =   0.0198020
        k(   33) = (   0.1600000   0.0000000   0.0000000), wk =   0.0198020
        k(   34) = (   0.1650000   0.0000000   0.0000000), wk =   0.0198020
        k(   35) = (   0.1700000   0.0000000   0.0000000), wk =   0.0198020
        k(   36) = (   0.1750000   0.0000000   0.0000000), wk =   0.0198020
        k(   37) = (   0.1800000   0.0000000   0.0000000), wk =   0.0198020
        k(   38) = (   0.1850000   0.0000000   0.0000000), wk =   0.0198020
        k(   39) = (   0.1900000   0.0000000   0.0000000), wk =   0.0198020
        k(   40) = (   0.1950000   0.0000000   0.0000000), wk =   0.0198020
        k(   41) = (   0.2000000   0.0000000   0.0000000), wk =   0.0198020
        k(   42) = (   0.2050000   0.0000000   0.0000000), wk =   0.0198020
        k(   43) = (   0.2100000   0.0000000   0.0000000), wk =   0.0198020
        k(   44) = (   0.2150000   0.0000000   0.0000000), wk =   0.0198020
        k(   45) = (   0.2200000   0.0000000   0.0000000), wk =   0.0198020
        k(   46) = (   0.2250000   0.0000000   0.0000000), wk =   0.0198020
        k(   47) = (   0.2300000   0.0000000   0.0000000), wk =   0.0198020
        k(   48) = (   0.2350000   0.0000000   0.0000000), wk =   0.0198020
        k(   49) = (   0.2400000   0.0000000   0.0000000), wk =   0.0198020
        k(   50) = (   0.2450000   0.0000000   0.0000000), wk =   0.0198020
        k(   51) = (   0.2500000   0.0000000   0.0000000), wk =   0.0198020
        k(   52) = (   0.2550000   0.0000000   0.0000000), wk =   0.0198020
        k(   53) = (   0.2600000   0.0000000   0.0000000), wk =   0.0198020
        k(   54) = (   0.2650000   0.0000000   0.0000000), wk =   0.0198020
        k(   55) = (   0.2700000   0.0000000   0.0000000), wk =   0.0198020
        k(   56) = (   0.2750000   0.0000000   0.0000000), wk =   0.0198020
        k(   57) = (   0.2800000   0.0000000   0.0000000), wk =   0.0198020
        k(   58) = (   0.2850000   0.0000000   0.0000000), wk =   0.0198020
        k(   59) = (   0.2900000   0.0000000   0.0000000), wk =   0.0198020
        k(   60) = (   0.2950000   0.0000000   0.0000000), wk =   0.0198020
        k(   61) = (   0.3000000   0.0000000   0.0000000), wk =   0.0198020
        k(   62) = (   0.3050000   0.0000000   0.0000000), wk =   0.0198020
        k(   63) = (   0.3100000   0.0000000   0.0000000), wk =   0.0198020
        k(   64) = (   0.3150000   0.0000000   0.0000000), wk =   0.0198020
        k(   65) = (   0.3200000   0.0000000   0.0000000), wk =   0.0198020
        k(   66) = (   0.3250000   0.0000000   0.0000000), wk =   0.0198020
        k(   67) = (   0.3300000   0.0000000   0.0000000), wk =   0.0198020
        k(   68) = (   0.3350000   0.0000000   0.0000000), wk =   0.0198020
        k(   69) = (   0.3400000   0.0000000   0.0000000), wk =   0.0198020
        k(   70) = (   0.3450000   0.0000000   0.0000000), wk =   0.0198020
        k(   71) = (   0.3500000   0.0000000   0.0000000), wk =   0.0198020
        k(   72) = (   0.3550000   0.0000000   0.0000000), wk =   0.0198020
        k(   73) = (   0.3600000   0.0000000   0.0000000), wk =   0.0198020
        k(   74) = (   0.3650000   0.0000000   0.0000000), wk =   0.0198020
        k(   75) = (   0.3700000   0.0000000   0.0000000), wk =   0.0198020
        k(   76) = (   0.3750000   0.0000000   0.0000000), wk =   0.0198020
        k(   77) = (   0.3800000   0.0000000   0.0000000), wk =   0.0198020
        k(   78) = (   0.3850000   0.0000000   0.0000000), wk =   0.0198020
        k(   79) = (   0.3900000   0.0000000   0.0000000), wk =   0.0198020
        k(   80) = (   0.3950000   0.0000000   0.0000000), wk =   0.0198020
        k(   81) = (   0.4000000   0.0000000   0.0000000), wk =   0.0198020
        k(   82) = (   0.4050000   0.0000000   0.0000000), wk =   0.0198020
        k(   83) = (   0.4100000   0.0000000   0.0000000), wk =   0.0198020
        k(   84) = (   0.4150000   0.0000000   0.0000000), wk =   0.0198020
        k(   85) = (   0.4200000   0.0000000   0.0000000), wk =   0.0198020
        k(   86) = (   0.4250000   0.0000000   0.0000000), wk =   0.0198020
        k(   87) = (   0.4300000   0.0000000   0.0000000), wk =   0.0198020
        k(   88) = (   0.4350000   0.0000000   0.0000000), wk =   0.0198020
        k(   89) = (   0.4400000   0.0000000   0.0000000), wk =   0.0198020
        k(   90) = (   0.4450000   0.0000000   0.0000000), wk =   0.0198020
        k(   91) = (   0.4500000   0.0000000   0.0000000), wk =   0.0198020
        k(   92) = (   0.4550000   0.0000000   0.0000000), wk =   0.0198020
        k(   93) = (   0.4600000   0.0000000   0.0000000), wk =   0.0198020
        k(   94) = (   0.4650000   0.0000000   0.0000000), wk =   0.0198020
        k(   95) = (   0.4700000   0.0000000   0.0000000), wk =   0.0198020
        k(   96) = (   0.4750000   0.0000000   0.0000000), wk =   0.0198020
        k(   97) = (   0.4800000   0.0000000   0.0000000), wk =   0.0198020
        k(   98) = (   0.4850000   0.0000000   0.0000000), wk =   0.0198020
        k(   99) = (   0.4900000   0.0000000   0.0000000), wk =   0.0198020
        k(  100) = (   0.4950000   0.0000000   0.0000000), wk =   0.0198020
        k(  101) = (   0.5000000   0.0000000   0.0000000), wk =   0.0198020

     Dense  grid:   229233 G-vectors     FFT dimensions: (  40,  40, 324)

     Dynamical RAM for                 wfc:       1.40 MB

     Dynamical RAM for     wfc (w. buffer):       1.40 MB

     Dynamical RAM for           str. fact:       0.70 MB

     Dynamical RAM for           local pot:       0.00 MB

     Dynamical RAM for          nlocal pot:       2.36 MB

     Dynamical RAM for                qrad:       3.24 MB

     Dynamical RAM for          rho,v,vnew:       2.26 MB

     Dynamical RAM for           G-vectors:       1.49 MB

     Dynamical RAM for          h,s,v(r/c):       0.02 MB

     Dynamical RAM for          <psi|beta>:       0.03 MB

     Dynamical RAM for                 psi:       2.80 MB

     Dynamical RAM for                hpsi:       2.80 MB

     Dynamical RAM for                spsi:       2.80 MB

     Dynamical RAM for      wfcinit/wfcrot:       2.82 MB

     Dynamical RAM for           addusdens:      16.70 MB

     Estimated static dynamical RAM per process >      14.51 MB

     Estimated max dynamical RAM per process >      31.21 MB

     Estimated total dynamical RAM >       1.22 GB

     The potential is recalculated from file :
     ./mose2.save/charge-density


     negative rho (up, down):  1.202E-04 0.000E+00
     Starting wfcs are   28 randomized atomic wfcs +    4 random wfcs
     Checking if some PAW data can be deallocated... 
       PAW data deallocated on   26 nodes for type:  1
       PAW data deallocated on   14 nodes for type:  2

     Band Structure Calculation
     Davidson diagonalization with overlap

     Computing kpt #:     1  of    26 on this pool
     total cpu time spent up to now is        4.5 secs

     Computing kpt #:     2  of    26 on this pool
     total cpu time spent up to now is        6.3 secs

     Computing kpt #:     3  of    26 on this pool
     total cpu time spent up to now is        8.2 secs

     Computing kpt #:     4  of    26 on this pool
     total cpu time spent up to now is       10.4 secs

     Computing kpt #:     5  of    26 on this pool
     total cpu time spent up to now is       12.8 secs

     Computing kpt #:     6  of    26 on this pool
     total cpu time spent up to now is       15.1 secs

     Computing kpt #:     7  of    26 on this pool
     total cpu time spent up to now is       17.2 secs

     Computing kpt #:     8  of    26 on this pool
     total cpu time spent up to now is       19.2 secs

     Computing kpt #:     9  of    26 on this pool
     total cpu time spent up to now is       21.5 secs

     Computing kpt #:    10  of    26 on this pool
     total cpu time spent up to now is       23.1 secs

     Computing kpt #:    11  of    26 on this pool
     total cpu time spent up to now is       24.7 secs

     Computing kpt #:    12  of    26 on this pool
     total cpu time spent up to now is       26.3 secs

     Computing kpt #:    13  of    26 on this pool
     total cpu time spent up to now is       27.9 secs

     Computing kpt #:    14  of    26 on this pool
     total cpu time spent up to now is       29.5 secs

     Computing kpt #:    15  of    26 on this pool
     total cpu time spent up to now is       31.3 secs

     Computing kpt #:    16  of    26 on this pool
     total cpu time spent up to now is       32.8 secs

     Computing kpt #:    17  of    26 on this pool
     total cpu time spent up to now is       34.5 secs

     Computing kpt #:    18  of    26 on this pool
     total cpu time spent up to now is       36.1 secs

     Computing kpt #:    19  of    26 on this pool
     total cpu time spent up to now is       37.6 secs

     Computing kpt #:    20  of    26 on this pool
     total cpu time spent up to now is       39.2 secs

     Computing kpt #:    21  of    26 on this pool
     total cpu time spent up to now is       40.8 secs

     Computing kpt #:    22  of    26 on this pool
     total cpu time spent up to now is       42.3 secs

     Computing kpt #:    23  of    26 on this pool
     total cpu time spent up to now is       45.5 secs

     Computing kpt #:    24  of    26 on this pool
     total cpu time spent up to now is       47.1 secs

     Computing kpt #:    25  of    26 on this pool
     total cpu time spent up to now is       48.7 secs

     Computing kpt #:    26  of    26 on this pool
     total cpu time spent up to now is       50.0 secs

     ethr =  2.17E-13,  avg # of iterations = 50.1

     total cpu time spent up to now is       50.0 secs

     End of band structure calculation

          k = 0.0000 0.0000 0.0000 ( 28541 PWs)   bands (ev):

   -61.8622 -48.5576 -48.5576 -48.5572 -48.5572 -48.5158 -48.5158 -48.5148
   -48.5148 -48.4993 -48.4971 -36.0689 -35.8489 -35.8489 -15.5323 -14.4889
    -6.7212  -3.2942  -3.2942  -3.1014  -2.2651  -2.2651  -1.5097   1.8423
     1.8423   2.0945   2.0945   3.6041   3.8482   4.1096   4.7235   4.8617

          k = 0.0050 0.0029 0.0000 ( 28545 PWs)   bands (ev):

   -61.8622 -48.5576 -48.5576 -48.5572 -48.5572 -48.5158 -48.5158 -48.5148
   -48.5148 -48.4993 -48.4971 -36.0689 -35.8490 -35.8489 -15.5320 -14.4888
    -6.7207  -3.2952  -3.2939  -3.1027  -2.2657  -2.2643  -1.5097   1.8409
     1.8429   2.0923   2.0939   3.6052   3.8487   4.1103   4.7240   4.8632

          k = 0.0100 0.0058 0.0000 ( 28545 PWs)   bands (ev):

   -61.8622 -48.5576 -48.5576 -48.5572 -48.5572 -48.5158 -48.5158 -48.5148
   -48.5148 -48.4993 -48.4971 -36.0689 -35.8492 -35.8490 -15.5309 -14.4882
    -6.7194  -3.2981  -3.2928  -3.1066  -2.2676  -2.2619  -1.5099   1.8369
     1.8446   2.0859   2.0921   3.6083   3.8502   4.1122   4.7255   4.8676

          k = 0.0150 0.0087 0.0000 ( 28543 PWs)   bands (ev):

   -61.8621 -48.5576 -48.5576 -48.5572 -48.5572 -48.5158 -48.5158 -48.5148
   -48.5148 -48.4993 -48.4971 -36.0688 -35.8496 -35.8491 -15.5291 -14.4872
    -6.7172  -3.3030  -3.2909  -3.1130  -2.2708  -2.2581  -1.5102   1.8302
     1.8475   2.0753   2.0891   3.6134   3.8527   4.1154   4.7279   4.8750

          k = 0.0200 0.0115 0.0000 ( 28539 PWs)   bands (ev):

   -61.8621 -48.5576 -48.5576 -48.5572 -48.5572 -48.5158 -48.5158 -48.5148
   -48.5148 -48.4993 -48.4971 -36.0687 -35.8501 -35.8492 -15.5265 -14.4858
    -6.7140  -3.3098  -3.2883  -3.1218  -2.2751  -2.2528  -1.5106   1.8210
     1.8516   2.0607   2.0850   3.6204   3.8562   4.1198   4.7312   4.8853

          k = 0.0250 0.0144 0.0000 ( 28527 PWs)   bands (ev):

   -61.8620 -48.5576 -48.5576 -48.5572 -48.5572 -48.5158 -48.5158 -48.5148
   -48.5148 -48.4993 -48.4971 -36.0685 -35.8507 -35.8493 -15.5233 -14.4840
    -6.7100  -3.3184  -3.2850  -3.1329  -2.2808  -2.2463  -1.5111   1.8092
     1.8568   2.0422   2.0797   3.6292   3.8607   4.1254   4.7356   4.8983

          k = 0.0300 0.0173 0.0000 ( 28523 PWs)   bands (ev):

   -61.8620 -48.5576 -48.5576 -48.5572 -48.5572 -48.5158 -48.5158 -48.5148
   -48.5148 -48.4993 -48.4971 -36.0684 -35.8515 -35.8495 -15.5193 -14.4818
    -6.7051  -3.3290  -3.2810  -3.1463  -2.2876  -2.2387  -1.5117   1.7952
     1.8631   2.0202   2.0733   3.6396   3.8662   4.1322   4.7408   4.9140

          k = 0.0350 0.0202 0.0000 ( 28523 PWs)   bands (ev):

   -61.8619 -48.5576 -48.5576 -48.5572 -48.5572 -48.5158 -48.5158 -48.5148
   -48.5148 -48.4993 -48.4971 -36.0681 -35.8525 -35.8497 -15.5146 -14.4792
    -6.6993  -3.3414  -3.2762  -3.1616  -2.2956  -2.2301  -1.5125   1.7789
     1.8706   1.9948   2.0658   3.6514   3.8726   4.1402   4.7471   4.9323

          k = 0.0400 0.0231 0.0000 ( 28523 PWs)   bands (ev):

   -61.8618 -48.5576 -48.5575 -48.5572 -48.5572 -48.5158 -48.5158 -48.5148
   -48.5148 -48.4993 -48.4971 -36.0679 -35.8536 -35.8500 -15.5092 -14.4763
    -6.6926  -3.3557  -3.2707  -3.1788  -2.3048  -2.2208  -1.5135   1.7606
     1.8790   1.9665   2.0571   3.6646   3.8800   4.1493   4.7543   4.9530

          k = 0.0450 0.0260 0.0000 ( 28507 PWs)   bands (ev):

   -61.8617 -48.5576 -48.5575 -48.5572 -48.5571 -48.5158 -48.5158 -48.5148
   -48.5148 -48.4993 -48.4971 -36.0676 -35.8548 -35.8502 -15.5030 -14.4729
    -6.6851  -3.3717  -3.2644  -3.1978  -2.3151  -2.2110  -1.5146   1.7405
     1.8886   1.9353   2.0474   3.6788   3.8884   4.1595   4.7624   4.9759

          k = 0.0500 0.0289 0.0000 ( 28497 PWs)   bands (ev):

   -61.8615 -48.5576 -48.5575 -48.5572 -48.5571 -48.5158 -48.5158 -48.5148
   -48.5148 -48.4993 -48.4971 -36.0673 -35.8562 -35.8505 -15.4962 -14.4692
    -6.6767  -3.3896  -3.2575  -3.2183  -2.3265  -2.2008  -1.5159   1.7188
     1.8991   1.9018   2.0367   3.6941   3.8978   4.1706   4.7715   5.0008

          k = 0.0550 0.0318 0.0000 ( 28507 PWs)   bands (ev):

   -61.8614 -48.5576 -48.5575 -48.5572 -48.5571 -48.5158 -48.5158 -48.5148
   -48.5148 -48.4992 -48.4971 -36.0670 -35.8577 -35.8509 -15.4886 -14.4651
    -6.6675  -3.4091  -3.2498  -3.2403  -2.3391  -2.1904  -1.5175   1.6957
     1.8660   1.9106   2.0249   3.7102   3.9081   4.1828   4.7815   5.0274

          k = 0.0600 0.0346 0.0000 ( 28507 PWs)   bands (ev):

   -61.8613 -48.5576 -48.5574 -48.5572 -48.5571 -48.5158 -48.5158 -48.5148
   -48.5148 -48.4992 -48.4971 -36.0667 -35.8593 -35.8513 -15.4804 -14.4605
    -6.6574  -3.4303  -3.2636  -3.2415  -2.3526  -2.1800  -1.5193   1.6714
     1.8284   1.9230   2.0121   3.7271   3.9193   4.1959   4.7924   5.0556

          k = 0.0650 0.0375 0.0000 ( 28511 PWs)   bands (ev):

   -61.8611 -48.5576 -48.5574 -48.5573 -48.5570 -48.5158 -48.5158 -48.5149
   -48.5148 -48.4992 -48.4970 -36.0663 -35.8611 -35.8517 -15.4714 -14.4556
    -6.6465  -3.4531  -3.2880  -3.2324  -2.3672  -2.1697  -1.5213   1.6461
     1.7891   1.9364   1.9984   3.7447   3.9315   4.2100   4.8043   5.0850

          k = 0.0700 0.0404 0.0000 ( 28517 PWs)   bands (ev):

   -61.8609 -48.5576 -48.5574 -48.5573 -48.5570 -48.5158 -48.5158 -48.5149
   -48.5148 -48.4992 -48.4970 -36.0659 -35.8630 -35.8521 -15.4618 -14.4504
    -6.6347  -3.4775  -3.3136  -3.2226  -2.3828  -2.1598  -1.5237   1.6201
     1.7485   1.9505   1.9837   3.7630   3.9446   4.2249   4.8171   5.1154

          k = 0.0750 0.0433 0.0000 ( 28511 PWs)   bands (ev):

   -61.8608 -48.5576 -48.5573 -48.5573 -48.5570 -48.5158 -48.5158 -48.5149
   -48.5148 -48.4992 -48.4970 -36.0654 -35.8650 -35.8526 -15.4514 -14.4447
    -6.6222  -3.5034  -3.3402  -3.2122  -2.3992  -2.1504  -1.5264   1.5936
     1.7067   1.9655   1.9682   3.7818   3.9587   4.2407   4.8309   5.1465

          k = 0.0800 0.0462 0.0000 ( 28501 PWs)   bands (ev):

   -61.8606 -48.5576 -48.5573 -48.5573 -48.5569 -48.5158 -48.5158 -48.5149
   -48.5148 -48.4992 -48.4970 -36.0649 -35.8672 -35.8530 -15.4404 -14.4387
    -6.6088  -3.5308  -3.3676  -3.2010  -2.4166  -2.1416  -1.5294   1.5668
     1.6640   1.9519   1.9812   3.8011   3.9737   4.2573   4.8455   5.1781

          k = 0.0850 0.0491 0.0000 ( 28499 PWs)   bands (ev):

   -61.8604 -48.5575 -48.5573 -48.5573 -48.5569 -48.5158 -48.5158 -48.5149
   -48.5148 -48.4992 -48.4970 -36.0644 -35.8695 -35.8536 -15.4287 -14.4323
    -6.5947  -3.5596  -3.3959  -3.1892  -2.4348  -2.1335  -1.5328   1.5400
     1.6207   1.9347   1.9976   3.8210   3.9896   4.2748   4.8611   5.2099

          k = 0.0900 0.0520 0.0000 ( 28507 PWs)   bands (ev):

   -61.8601 -48.5575 -48.5573 -48.5572 -48.5569 -48.5158 -48.5158 -48.5149
   -48.5148 -48.4991 -48.4969 -36.0639 -35.8719 -35.8541 -15.4163 -14.4255
    -6.5799  -3.5898  -3.4250  -3.1767  -2.4539  -2.1263  -1.5367   1.5135
     1.5768   1.9168   2.0147   3.8414   4.0064   4.2930   4.8776   5.2418

          k = 0.0950 0.0548 0.0000 ( 28505 PWs)   bands (ev):

   -61.8599 -48.5575 -48.5573 -48.5572 -48.5568 -48.5158 -48.5158 -48.5150
   -48.5148 -48.4991 -48.4969 -36.0633 -35.8745 -35.8547 -15.4032 -14.4183
    -6.5643  -3.6212  -3.4547  -3.1636  -2.4737  -2.1201  -1.5410   1.4873
     1.5327   1.8982   2.0324   3.8623   4.0241   4.3120   4.8950   5.2736

          k = 0.1000 0.0577 0.0000 ( 28517 PWs)   bands (ev):

   -61.8597 -48.5575 -48.5573 -48.5571 -48.5568 -48.5158 -48.5158 -48.5150
   -48.5148 -48.4991 -48.4969 -36.0628 -35.8771 -35.8553 -15.3895 -14.4108
    -6.5480  -3.6539  -3.4852  -3.1498  -2.4942  -2.1150  -1.5458   1.4618
     1.4884   1.8789   2.0507   3.8837   4.0428   4.3318   4.9133   5.3052

          k = 0.1050 0.0606 0.0000 ( 28529 PWs)   bands (ev):

   -61.8594 -48.5575 -48.5573 -48.5571 -48.5567 -48.5158 -48.5158 -48.5150
   -48.5148 -48.4991 -48.4969 -36.0621 -35.8799 -35.8559 -15.3751 -14.4030
    -6.5310  -3.6878  -3.5162  -3.1354  -2.5154  -2.1111  -1.5512   1.4371
     1.4442   1.8590   2.0695   3.9056   4.0623   4.3524   4.9325   5.3365

          k = 0.1100 0.0635 0.0000 ( 28525 PWs)   bands (ev):

   -61.8592 -48.5575 -48.5573 -48.5570 -48.5567 -48.5158 -48.5158 -48.5150
   -48.5148 -48.4991 -48.4969 -36.0615 -35.8828 -35.8566 -15.3601 -14.3947
    -6.5133  -3.7227  -3.5478  -3.1204  -2.5372  -2.1084  -1.5571   1.4002
     1.4134   1.8386   2.0888   3.9281   4.0827   4.3738   4.9526   5.3675

          k = 0.1150 0.0664 0.0000 ( 28515 PWs)   bands (ev):

   -61.8589 -48.5575 -48.5573 -48.5570 -48.5566 -48.5158 -48.5158 -48.5151
   -48.5148 -48.4990 -48.4968 -36.0609 -35.8858 -35.8573 -15.3444 -14.3862
    -6.4950  -3.7588  -3.5800  -3.1047  -2.5596  -2.1071  -1.5637   1.3566
     1.3909   1.8175   2.1084   3.9511   4.1041   4.3959   4.9736   5.3983

          k = 0.1200 0.0693 0.0000 ( 28521 PWs)   bands (ev):

   -61.8586 -48.5575 -48.5573 -48.5569 -48.5566 -48.5159 -48.5158 -48.5151
   -48.5148 -48.4990 -48.4968 -36.0602 -35.8889 -35.8580 -15.3281 -14.3773
    -6.4760  -3.7958  -3.6127  -3.0885  -2.5826  -2.1072  -1.5709   1.3136
     1.3698   1.7960   2.1285   3.9746   4.1263   4.4188   4.9955   5.4287

          k = 0.1250 0.0722 0.0000 ( 28519 PWs)   bands (ev):

   -61.8583 -48.5575 -48.5573 -48.5569 -48.5565 -48.5159 -48.5158 -48.5151
   -48.5148 -48.4990 -48.4968 -36.0595 -35.8922 -35.8587 -15.3111 -14.3680
    -6.4565  -3.8337  -3.6460  -3.0717  -2.6061  -2.1087  -1.5788   1.2712
     1.3501   1.7741   2.1488   3.9987   4.1494   4.4425   5.0183   5.4590

          k = 0.1300 0.0751 0.0000 ( 28505 PWs)   bands (ev):

   -61.8580 -48.5575 -48.5573 -48.5568 -48.5565 -48.5159 -48.5158 -48.5151
   -48.5148 -48.4990 -48.4967 -36.0587 -35.8955 -35.8595 -15.2936 -14.3584
    -6.4364  -3.8725  -3.6797  -3.0543  -2.6301  -2.1118  -1.5874   1.2296
     1.3321   1.7518   2.1695   4.0233   4.1734   4.4669   5.0420   5.4891

          k = 0.1350 0.0779 0.0000 ( 28509 PWs)   bands (ev):

   -61.8577 -48.5575 -48.5573 -48.5568 -48.5564 -48.5159 -48.5158 -48.5152
   -48.5148 -48.4989 -48.4967 -36.0580 -35.8989 -35.8602 -15.2754 -14.3485
    -6.4158  -3.9121  -3.7138  -3.0363  -2.6545  -2.1163  -1.5968   1.1890
     1.3159   1.7291   2.1903   4.0485   4.1982   4.4921   5.0666   5.5191

          k = 0.1400 0.0808 0.0000 ( 28515 PWs)   bands (ev):

   -61.8574 -48.5575 -48.5573 -48.5567 -48.5564 -48.5159 -48.5158 -48.5152
   -48.5148 -48.4989 -48.4967 -36.0572 -35.9024 -35.8610 -15.2567 -14.3383
    -6.3948  -3.9524  -3.7485  -3.0178  -2.6792  -2.1224  -1.6070   1.1495
     1.3015   1.7061   2.2114   4.0743   4.2240   4.5181   5.0920   5.5490

          k = 0.1450 0.0837 0.0000 ( 28523 PWs)   bands (ev):

   -61.8571 -48.5574 -48.5573 -48.5567 -48.5563 -48.5159 -48.5158 -48.5152
   -48.5148 -48.4989 -48.4967 -36.0564 -35.9060 -35.8618 -15.2373 -14.3277
    -6.3732  -3.9933  -3.7836  -2.9987  -2.7043  -2.1300  -1.6180   1.1111
     1.2890   1.6828   2.2326   4.1007   4.2506   4.5448   5.1184   5.5790

          k = 0.1500 0.0866 0.0000 ( 28535 PWs)   bands (ev):

   -61.8568 -48.5574 -48.5573 -48.5566 -48.5563 -48.5159 -48.5158 -48.5153
   -48.5148 -48.4988 -48.4966 -36.0556 -35.9097 -35.8627 -15.2174 -14.3168
    -6.3513  -4.0349  -3.8191  -2.9792  -2.7298  -2.1391  -1.6298   1.0741
     1.2785   1.6594   2.2539   4.1277   4.2780   4.5724   5.1456   5.6090

          k = 0.1550 0.0895 0.0000 ( 28537 PWs)   bands (ev):

   -61.8564 -48.5574 -48.5573 -48.5565 -48.5562 -48.5159 -48.5158 -48.5153
   -48.5149 -48.4988 -48.4966 -36.0548 -35.9135 -35.8635 -15.1969 -14.3056
    -6.3291  -4.0770  -3.8551  -2.9592  -2.7555  -2.1496  -1.6425   1.0384
     1.2701   1.6357   2.2752   4.1553   4.3064   4.6007   5.1736   5.6392

          k = 0.1600 0.0924 0.0000 ( 28551 PWs)   bands (ev):

   -61.8561 -48.5574 -48.5573 -48.5565 -48.5561 -48.5159 -48.5158 -48.5153
   -48.5149 -48.4988 -48.4966 -36.0539 -35.9173 -35.8644 -15.1758 -14.2941
    -6.3065  -4.1195  -3.8915  -2.9386  -2.7814  -2.1616  -1.6561   1.0042
     1.2637   1.6119   2.2966   4.1834   4.3355   4.6298   5.2025   5.6695

          k = 0.1650 0.0953 0.0000 ( 28551 PWs)   bands (ev):

   -61.8557 -48.5574 -48.5574 -48.5564 -48.5561 -48.5159 -48.5159 -48.5154
   -48.5149 -48.4988 -48.4965 -36.0530 -35.9212 -35.8653 -15.1543 -14.2824
    -6.2837  -4.1625  -3.9283  -2.9176  -2.8076  -2.1750  -1.6705   0.9716
     1.2595   1.5880   2.3180   4.2122   4.3655   4.6597   5.2323   5.7000

          k = 0.1700 0.0981 0.0000 ( 28551 PWs)   bands (ev):

   -61.8554 -48.5574 -48.5574 -48.5563 -48.5560 -48.5159 -48.5159 -48.5154
   -48.5149 -48.4987 -48.4965 -36.0522 -35.9252 -35.8662 -15.1321 -14.2703
    -6.2608  -4.2057  -3.9655  -2.8962  -2.8339  -2.1898  -1.6857   0.9407
     1.2573   1.5641   2.3393   4.2415   4.3964   4.6904   5.2629   5.7307

          k = 0.1750 0.1010 0.0000 ( 28567 PWs)   bands (ev):

   -61.8550 -48.5574 -48.5574 -48.5563 -48.5560 -48.5160 -48.5159 -48.5154
   -48.5149 -48.4987 -48.4965 -36.0513 -35.9293 -35.8671 -15.1095 -14.2580
    -6.2377  -4.2492  -4.0032  -2.8744  -2.8603  -2.2057  -1.7019   0.9114
     1.2572   1.5401   2.3605   4.2715   4.4281   4.7219   5.2944   5.7618

          k = 0.1800 0.1039 0.0000 ( 28579 PWs)   bands (ev):

   -61.8547 -48.5574 -48.5574 -48.5562 -48.5559 -48.5160 -48.5159 -48.5155
   -48.5149 -48.4987 -48.4964 -36.0504 -35.9334 -35.8681 -15.0863 -14.2453
    -6.2146  -4.2928  -4.0413  -2.8869  -2.8521  -2.2229  -1.7188   0.8839
     1.2592   1.5162   2.3816   4.3020   4.4606   4.7543   5.3267   5.7931

          k = 0.1850 0.1068 0.0000 ( 28577 PWs)   bands (ev):

   -61.8543 -48.5574 -48.5574 -48.5561 -48.5558 -48.5160 -48.5159 -48.5155
   -48.5149 -48.4986 -48.4964 -36.0494 -35.9376 -35.8690 -15.0627 -14.2325
    -6.1916  -4.3365  -4.0798  -2.9135  -2.8295  -2.2412  -1.7365   0.8582
     1.2632   1.4923   2.4026   4.3332   4.4939   4.7874   5.3598   5.8247

          k = 0.1900 0.1097 0.0000 ( 28585 PWs)   bands (ev):

   -61.8539 -48.5574 -48.5573 -48.5561 -48.5558 -48.5160 -48.5159 -48.5155
   -48.5149 -48.4986 -48.4964 -36.0485 -35.9418 -35.8700 -15.0386 -14.2193
    -6.1686  -4.3802  -4.1187  -2.9402  -2.8065  -2.2604  -1.7550   0.8344
     1.2692   1.4685   2.4234   4.3649   4.5280   4.8213   5.3938   5.8566

          k = 0.1950 0.1126 0.0000 ( 28587 PWs)   bands (ev):

   -61.8535 -48.5574 -48.5573 -48.5560 -48.5557 -48.5160 -48.5159 -48.5156
   -48.5149 -48.4986 -48.4963 -36.0475 -35.9461 -35.8710 -15.0140 -14.2060
    -6.1459  -4.4238  -4.1579  -2.9669  -2.7832  -2.2806  -1.7742   0.8124
     1.2770   1.4449   2.4440   4.3971   4.5629   4.8561   5.4286   5.8888

          k = 0.2000 0.1155 0.0000 ( 28595 PWs)   bands (ev):

   -61.8531 -48.5574 -48.5573 -48.5559 -48.5556 -48.5160 -48.5159 -48.5156
   -48.5149 -48.4985 -48.4963 -36.0466 -35.9505 -35.8720 -14.9890 -14.1924
    -6.1236  -4.4672  -4.1976  -2.9936  -2.7595  -2.3015  -1.7940   0.7923
     1.2867   1.4214   2.4643   4.4300   4.5986   4.8916   5.4641   5.9213

          k = 0.2050 0.1184 0.0000 ( 28583 PWs)   bands (ev):

   -61.8527 -48.5574 -48.5573 -48.5559 -48.5555 -48.5160 -48.5159 -48.5157
   -48.5149 -48.4985 -48.4963 -36.0456 -35.9548 -35.8730 -14.9635 -14.1785
    -6.1017  -4.5102  -4.2377  -3.0202  -2.7356  -2.3232  -1.8144   0.7740
     1.2982   1.3981   2.4844   4.4634   4.6351   4.9280   5.5005   5.9542

          k = 0.2100 0.1212 0.0000 ( 28607 PWs)   bands (ev):

   -61.8523 -48.5574 -48.5573 -48.5558 -48.5555 -48.5160 -48.5159 -48.5157
   -48.5149 -48.4985 -48.4962 -36.0446 -35.9592 -35.8740 -14.9376 -14.1645
    -6.0804  -4.5528  -4.2781  -3.0468  -2.7114  -2.3454  -1.8352   0.7576
     1.3114   1.3751   2.5042   4.4973   4.6723   4.9652   5.5376   5.9873

          k = 0.2150 0.1241 0.0000 ( 28599 PWs)   bands (ev):

   -61.8519 -48.5574 -48.5573 -48.5557 -48.5554 -48.5160 -48.5159 -48.5157
   -48.5149 -48.4984 -48.4962 -36.0436 -35.9637 -35.8750 -14.9113 -14.1502
    -6.0599  -4.5948  -4.3189  -3.0732  -2.6870  -2.3682  -1.8565   0.7431
     1.3262   1.3523   2.5238   4.5317   4.7103   5.0032   5.5755   6.0207

          k = 0.2200 0.1270 0.0000 ( 28603 PWs)   bands (ev):

   -61.8515 -48.5574 -48.5573 -48.5556 -48.5553 -48.5160 -48.5159 -48.5158
   -48.5149 -48.4984 -48.4961 -36.0426 -35.9681 -35.8760 -14.8847 -14.1357
    -6.0402  -4.6362  -4.3600  -3.0996  -2.6623  -2.3914  -1.8781   0.7304
     1.3299   1.3425   2.5430   4.5667   4.7490   5.0421   5.6141   6.0544

          k = 0.2250 0.1299 0.0000 ( 28615 PWs)   bands (ev):

   -61.8511 -48.5574 -48.5572 -48.5556 -48.5553 -48.5161 -48.5159 -48.5158
   -48.5150 -48.4984 -48.4961 -36.0416 -35.9726 -35.8771 -14.8576 -14.1211
    -6.0216  -4.6766  -4.4015  -3.1258  -2.6375  -2.4149  -1.8999   0.7194
     1.3077   1.3603   2.5619   4.6021   4.7884   5.0818   5.6535   6.0883

          k = 0.2300 0.1328 0.0000 ( 28615 PWs)   bands (ev):

   -61.8507 -48.5575 -48.5572 -48.5555 -48.5552 -48.5161 -48.5159 -48.5158
   -48.5150 -48.4983 -48.4961 -36.0406 -35.9772 -35.8781 -14.8303 -14.1063
    -6.0043  -4.7160  -4.4432  -3.1519  -2.6125  -2.4386  -1.9218   0.7103
     1.2859   1.3794   2.5804   4.6380   4.8285   5.1223   5.6936   6.1224

          k = 0.2350 0.1357 0.0000 ( 28613 PWs)   bands (ev):

   -61.8503 -48.5575 -48.5572 -48.5554 -48.5551 -48.5161 -48.5159 -48.5159
   -48.5150 -48.4983 -48.4960 -36.0396 -35.9817 -35.8791 -14.8026 -14.0913
    -5.9884  -4.7542  -4.4853  -3.1778  -2.5873  -2.4625  -1.9437   0.7028
     1.2645   1.3998   2.5986   4.6743   4.8693   5.1637   5.7343   6.1567

          k = 0.2400 0.1386 0.0000 ( 28621 PWs)   bands (ev):

   -61.8499 -48.5575 -48.5572 -48.5553 -48.5550 -48.5161 -48.5159 -48.5159
   -48.5150 -48.4983 -48.4960 -36.0386 -35.9862 -35.8802 -14.7746 -14.0762
    -5.9743  -4.7910  -4.5276  -3.2035  -2.5621  -2.4863  -1.9655   0.6970
     1.2435   1.4214   2.6164   4.7111   4.9107   5.2059   5.7758   6.1910

          k = 0.2450 0.1415 0.0000 ( 28601 PWs)   bands (ev):

   -61.8495 -48.5575 -48.5572 -48.5553 -48.5550 -48.5161 -48.5160 -48.5160
   -48.5150 -48.4982 -48.4959 -36.0376 -35.9908 -35.8812 -14.7463 -14.0609
    -5.9620  -4.8261  -4.5701  -3.2289  -2.5368  -2.5102  -1.9870   0.6928
     1.2230   1.4440   2.6338   4.7482   4.9527   5.2490   5.8178   6.2254

          k = 0.2500 0.1443 0.0000 ( 28597 PWs)   bands (ev):

   -61.8490 -48.5575 -48.5572 -48.5552 -48.5549 -48.5161 -48.5160 -48.5160
   -48.5150 -48.4982 -48.4959 -36.0365 -35.9953 -35.8823 -14.7177 -14.0455
    -5.9520  -4.8593  -4.6129  -3.2542  -2.5340  -2.5114  -2.0082   0.6901
     1.2029   1.4677   2.6508   4.7857   4.9954   5.2929   5.8605   6.2596

          k = 0.2550 0.1472 0.0000 ( 28605 PWs)   bands (ev):

   -61.8486 -48.5575 -48.5572 -48.5551 -48.5548 -48.5161 -48.5160 -48.5160
   -48.5150 -48.4982 -48.4959 -36.0355 -35.9998 -35.8833 -14.6889 -14.0300
    -5.9444  -4.8905  -4.6558  -3.2791  -2.5576  -2.4860  -2.0289   0.6890
     1.1833   1.4923   2.6674   4.8236   5.0386   5.3377   5.9037   6.2937

          k = 0.2600 0.1501 0.0000 ( 28615 PWs)   bands (ev):

   -61.8482 -48.5575 -48.5572 -48.5550 -48.5547 -48.5161 -48.5161 -48.5160
   -48.5150 -48.4981 -48.4958 -36.0345 -36.0044 -35.8843 -14.6599 -14.0144
    -5.9395  -4.9193  -4.6989  -3.3038  -2.5810  -2.4606  -2.0491   0.6892
     1.1642   1.5177   2.6836   4.8617   5.0823   5.3833   5.9475   6.3273

          k = 0.2650 0.1530 0.0000 ( 28617 PWs)   bands (ev):

   -61.8478 -48.5575 -48.5571 -48.5550 -48.5547 -48.5161 -48.5161 -48.5160
   -48.5150 -48.4981 -48.4958 -36.0335 -36.0089 -35.8854 -14.6307 -13.9987
    -5.9375  -4.9457  -4.7421  -3.3282  -2.6041  -2.4353  -2.0685   0.6909
     1.1457   1.5438   2.6994   4.9001   5.1266   5.4298   5.9917   6.3602

          k = 0.2700 0.1559 0.0000 ( 28623 PWs)   bands (ev):

   -61.8474 -48.5575 -48.5571 -48.5549 -48.5546 -48.5162 -48.5162 -48.5160
   -48.5150 -48.4981 -48.4958 -36.0325 -36.0134 -35.8864 -14.6013 -13.9829
    -5.9387  -4.9693  -4.7853  -3.3523  -2.6268  -2.4100  -2.0871   0.6938
     1.1277   1.5707   2.7147   4.9387   5.1713   5.4771   6.0364   6.3921

          k = 0.2750 0.1588 0.0000 ( 28631 PWs)   bands (ev):

   -61.8470 -48.5575 -48.5571 -48.5548 -48.5545 -48.5162 -48.5162 -48.5160
   -48.5150 -48.4980 -48.4957 -36.0315 -36.0179 -35.8875 -14.5718 -13.9671
    -5.9431  -4.9902  -4.8286  -3.3761  -2.6492  -2.3848  -2.1048   0.6980
     1.1102   1.5980   2.7296   4.9775   5.2164   5.5253   6.0813   6.4222

          k = 0.2800 0.1617 0.0000 ( 28633 PWs)   bands (ev):

   -61.8466 -48.5575 -48.5571 -48.5547 -48.5544 -48.5162 -48.5162 -48.5160
   -48.5150 -48.4980 -48.4957 -36.0305 -36.0223 -35.8885 -14.5421 -13.9512
    -5.9508  -5.0083  -4.8718  -3.3995  -2.6712  -2.3598  -2.1215   0.7034
     1.0934   1.6259   2.7441   5.0165   5.2618   5.5743   6.1265   6.4498

          k = 0.2850 0.1645 0.0000 ( 28639 PWs)   bands (ev):

   -61.8462 -48.5576 -48.5571 -48.5547 -48.5544 -48.5163 -48.5162 -48.5160
   -48.5150 -48.4980 -48.4956 -36.0295 -36.0268 -35.8895 -14.5124 -13.9353
    -5.9619  -5.0235  -4.9151  -3.4226  -2.6927  -2.3349  -2.1371   0.7099
     1.0771   1.6542   2.7582   5.0555   5.3075   5.6242   6.1719   6.4731

          k = 0.2900 0.1674 0.0000 ( 28635 PWs)   bands (ev):

   -61.8458 -48.5576 -48.5571 -48.5546 -48.5543 -48.5163 -48.5162 -48.5160
   -48.5150 -48.4979 -48.4956 -36.0312 -36.0285 -35.8905 -14.4825 -13.9194
    -5.9763  -5.0359  -4.9582  -3.4453  -2.7138  -2.3103  -2.1514   0.7174
     1.0615   1.6829   2.7718   5.0945   5.3534   5.6750   6.2171   6.4898

          k = 0.2950 0.1703 0.0000 ( 28629 PWs)   bands (ev):

   -61.8454 -48.5576 -48.5571 -48.5545 -48.5542 -48.5163 -48.5162 -48.5160
   -48.5151 -48.4979 -48.4956 -36.0355 -36.0275 -35.8915 -14.4527 -13.9035
    -5.9938  -5.0458  -5.0011  -3.4676  -2.7343  -2.2858  -2.1645   0.7260
     1.0464   1.7118   2.7850   5.1336   5.3995   5.7266   6.2622   6.4962

          k = 0.3000 0.1732 0.0000 ( 28631 PWs)   bands (ev):

   -61.8450 -48.5576 -48.5571 -48.5544 -48.5542 -48.5164 -48.5162 -48.5160
   -48.5151 -48.4978 -48.4955 -36.0398 -36.0265 -35.8925 -14.4228 -13.8876
    -6.0142  -5.0533  -5.0439  -3.4895  -2.7543  -2.2616  -2.1762   0.7354
     1.0321   1.7409   2.7978   5.1725   5.4456   5.7791   6.3068   6.4888

          k = 0.3050 0.1761 0.0000 ( 28635 PWs)   bands (ev):

   -61.8446 -48.5576 -48.5570 -48.5544 -48.5541 -48.5164 -48.5162 -48.5160
   -48.5151 -48.4978 -48.4955 -36.0441 -36.0255 -35.8935 -14.3930 -13.8718
    -6.0374  -5.0865  -5.0586  -3.5110  -2.7737  -2.2377  -2.1865   0.7458
     1.0183   1.7701   2.8102   5.2112   5.4916   5.8323   6.3506   6.4656

          k = 0.3100 0.1790 0.0000 ( 28645 PWs)   bands (ev):

   -61.8442 -48.5576 -48.5570 -48.5543 -48.5540 -48.5165 -48.5163 -48.5160
   -48.5151 -48.4978 -48.4954 -36.0483 -36.0246 -35.8945 -14.3632 -13.8560
    -6.0630  -5.1287  -5.0622  -3.5321  -2.7926  -2.2141  -2.1952   0.7570
     1.0052   1.7993   2.8221   5.2495   5.5373   5.8864   6.3931   6.4282

          k = 0.3150 0.1819 0.0000 ( 28647 PWs)   bands (ev):

   -61.8438 -48.5576 -48.5570 -48.5542 -48.5540 -48.5165 -48.5163 -48.5160
   -48.5151 -48.4978 -48.4954 -36.0525 -36.0236 -35.8954 -14.3335 -13.8403
    -6.0907  -5.1707  -5.0641  -3.5528  -2.8110  -2.2025  -2.1909   0.7690
     0.9928   1.8286   2.8336   5.2875   5.5828   5.9411   6.3802   6.4340

          k = 0.3200 0.1848 0.0000 ( 28641 PWs)   bands (ev):

   -61.8434 -48.5576 -48.5570 -48.5542 -48.5539 -48.5165 -48.5163 -48.5160
   -48.5151 -48.4977 -48.4954 -36.0565 -36.0227 -35.8964 -14.3039 -13.8247
    -6.1202  -5.2122  -5.0648  -3.5731  -2.8287  -2.2081  -2.1680   0.7817
     0.9810   1.8577   2.8447   5.3249   5.6277   5.9964   6.3252   6.4725

          k = 0.3250 0.1876 0.0000 ( 28655 PWs)   bands (ev):

   -61.8431 -48.5576 -48.5570 -48.5541 -48.5538 -48.5166 -48.5163 -48.5160
   -48.5151 -48.4977 -48.4953 -36.0606 -36.0218 -35.8973 -14.2745 -13.8092
    -6.1513  -5.2533  -5.0646  -3.5929  -2.8458  -2.2122  -2.1455   0.7950
     0.9699   1.8868   2.8553   5.3614   5.6719   6.0515   6.2665   6.5080

          k = 0.3300 0.1905 0.0000 ( 28659 PWs)   bands (ev):

   -61.8427 -48.5576 -48.5570 -48.5540 -48.5538 -48.5166 -48.5163 -48.5161
   -48.5151 -48.4977 -48.4953 -36.0646 -36.0209 -35.8982 -14.2452 -13.7938
    -6.1836  -5.2940  -5.0635  -3.6122  -2.8624  -2.2147  -2.1235   0.8090
     0.9595   1.9155   2.8656   5.3968   5.7151   6.1027   6.2097   6.5397

          k = 0.3350 0.1934 0.0000 ( 28659 PWs)   bands (ev):

   -61.8423 -48.5576 -48.5570 -48.5540 -48.5537 -48.5166 -48.5163 -48.5161
   -48.5151 -48.4976 -48.4953 -36.0685 -36.0200 -35.8991 -14.2162 -13.7786
    -6.2169  -5.3341  -5.0619  -3.6311  -2.8784  -2.2156  -2.1019   0.8235
     0.9497   1.9440   2.8755   5.4305   5.7572   6.1135   6.1930   6.5671

          k = 0.3400 0.1963 0.0000 ( 28659 PWs)   bands (ev):

   -61.8420 -48.5576 -48.5570 -48.5539 -48.5536 -48.5167 -48.5163 -48.5161
   -48.5151 -48.4976 -48.4952 -36.0723 -36.0191 -35.9000 -14.1874 -13.7635
    -6.2510  -5.3736  -5.0600  -3.6494  -2.8938  -2.2150  -2.0808   0.8386
     0.9406   1.9722   2.8849   5.4617   5.7978   6.0616   6.2403   6.5902

          k = 0.3450 0.1992 0.0000 ( 28663 PWs)   bands (ev):

   -61.8416 -48.5577 -48.5570 -48.5538 -48.5536 -48.5167 -48.5163 -48.5161
   -48.5151 -48.4976 -48.4952 -36.0760 -36.0183 -35.9009 -14.1589 -13.7487
    -6.2857  -5.4125  -5.0579  -3.6674  -2.9086  -2.2128  -2.0602   0.8541
     0.9321   2.0000   2.8940   5.4893   5.8367   6.0021   6.2981   6.6094

          k = 0.3500 0.2021 0.0000 ( 28677 PWs)   bands (ev):

   -61.8413 -48.5577 -48.5569 -48.5538 -48.5535 -48.5167 -48.5163 -48.5161
   -48.5151 -48.4975 -48.4952 -36.0797 -36.0174 -35.9017 -14.1308 -13.7340
    -6.3207  -5.4507  -5.0558  -3.6848  -2.9228  -2.2091  -2.0401   0.8701
     0.9243   2.0273   2.9027   5.5109   5.8735   5.9458   6.3584   6.6258

          k = 0.3550 0.2050 0.0000 ( 28675 PWs)   bands (ev):

   -61.8410 -48.5577 -48.5569 -48.5537 -48.5534 -48.5168 -48.5163 -48.5161
   -48.5151 -48.4975 -48.4951 -36.0833 -36.0166 -35.9026 -14.1030 -13.7195
    -6.3559  -5.4882  -5.0538  -3.7017  -2.9364  -2.2039  -2.0206   0.8864
     0.9171   2.0541   2.9110   5.5231   5.8976   5.9080   6.4201   6.6407

          k = 0.3600 0.2078 0.0000 ( 28671 PWs)   bands (ev):

   -61.8406 -48.5577 -48.5569 -48.5536 -48.5534 -48.5168 -48.5163 -48.5161
   -48.5151 -48.4975 -48.4951 -36.0868 -36.0158 -35.9034 -14.0756 -13.7054
    -6.3911  -5.5249  -5.0518  -3.7181  -2.9495  -2.1974  -2.0016   0.9031
     0.9105   2.0804   2.9190   5.5209   5.8631   5.9399   6.4830   6.6553

          k = 0.3650 0.2107 0.0000 ( 28667 PWs)   bands (ev):

   -61.8403 -48.5577 -48.5569 -48.5536 -48.5533 -48.5168 -48.5164 -48.5161
   -48.5151 -48.4975 -48.4951 -36.0902 -36.0150 -35.9042 -14.0487 -13.6914
    -6.4262  -5.5609  -5.0502  -3.7340  -2.9619  -2.1896  -1.9833   0.9045
     0.9200   2.1060   2.9265   5.5005   5.8463   5.9689   6.5468   6.6706

          k = 0.3700 0.2136 0.0000 ( 28685 PWs)   bands (ev):

   -61.8400 -48.5577 -48.5569 -48.5535 -48.5533 -48.5168 -48.5164 -48.5161
   -48.5151 -48.4974 -48.4950 -36.0935 -36.0143 -35.9050 -14.0223 -13.6778
    -6.4610  -5.5959  -5.0487  -3.7493  -2.9739  -2.1806  -1.9655   0.8990
     0.9372   2.1310   2.9338   5.4629   5.8466   5.9951   6.6115   6.6875

          k = 0.3750 0.2165 0.0000 ( 28675 PWs)   bands (ev):

   -61.8397 -48.5577 -48.5569 -48.5535 -48.5532 -48.5169 -48.5164 -48.5161
   -48.5152 -48.4974 -48.4950 -36.0967 -36.0135 -35.9057 -13.9963 -13.6644
    -6.4954  -5.6300  -5.0476  -3.7642  -2.9852  -2.1704  -1.9484   0.8942
     0.9546   2.1553   2.9407   5.4128   5.8594   6.0184   6.6770   6.7064

          k = 0.3800 0.2194 0.0000 ( 28671 PWs)   bands (ev):

   -61.8394 -48.5577 -48.5569 -48.5534 -48.5532 -48.5169 -48.5164 -48.5161
   -48.5152 -48.4974 -48.4950 -36.0998 -36.0128 -35.9064 -13.9710 -13.6514
    -6.5294  -5.6632  -5.0468  -3.7784  -2.9961  -2.1592  -1.9318   0.8898
     0.9721   2.1788   2.9472   5.3553   5.8800   6.0388   6.7274   6.7434

          k = 0.3850 0.2223 0.0000 ( 28659 PWs)   bands (ev):

   -61.8392 -48.5577 -48.5569 -48.5534 -48.5531 -48.5169 -48.5164 -48.5161
   -48.5152 -48.4974 -48.4950 -36.1028 -36.0121 -35.9071 -13.9463 -13.6388
    -6.5627  -5.6954  -5.0463  -3.7922  -3.0064  -2.1472  -1.9160   0.8860
     0.9898   2.2015   2.9534   5.2936   5.9050   6.0566   6.7505   6.8106

          k = 0.3900 0.2252 0.0000 ( 28653 PWs)   bands (ev):

   -61.8389 -48.5577 -48.5569 -48.5533 -48.5531 -48.5169 -48.5164 -48.5161
   -48.5152 -48.4973 -48.4949 -36.1057 -36.0115 -35.9078 -13.9222 -13.6265
    -6.5953  -5.7266  -5.0462  -3.8054  -3.0162  -2.1343  -1.9008   0.8827
     1.0075   2.2235   2.9593   5.2301   5.9325   6.0721   6.7754   6.8785

          k = 0.3950 0.2281 0.0000 ( 28653 PWs)   bands (ev):

   -61.8386 -48.5577 -48.5569 -48.5533 -48.5530 -48.5170 -48.5164 -48.5161
   -48.5152 -48.4973 -48.4949 -36.1085 -36.0108 -35.9084 -13.8988 -13.6145
    -6.6271  -5.7566  -5.0463  -3.8181  -3.0254  -2.1208  -1.8862   0.8798
     1.0251   2.2446   2.9649   5.1659   5.9614   6.0856   6.8017   6.9471

          k = 0.4000 0.2309 0.0000 ( 28657 PWs)   bands (ev):

   -61.8384 -48.5577 -48.5569 -48.5532 -48.5530 -48.5170 -48.5164 -48.5161
   -48.5152 -48.4973 -48.4949 -36.1111 -36.0102 -35.9091 -13.8762 -13.6030
    -6.6581  -5.7856  -5.0467  -3.8302  -3.0342  -2.1067  -1.8723   0.8773
     1.0427   2.2648   2.9701   5.1019   5.9910   6.0975   6.8287   7.0163

          k = 0.4050 0.2338 0.0000 ( 28641 PWs)   bands (ev):

   -61.8381 -48.5577 -48.5568 -48.5532 -48.5529 -48.5170 -48.5164 -48.5161
   -48.5152 -48.4973 -48.4949 -36.1137 -36.0096 -35.9097 -13.8543 -13.5919
    -6.6880  -5.8134  -5.0474  -3.8417  -3.0424  -2.0923  -1.8591   0.8753
     1.0602   2.2841   2.9751   5.0387   6.0207   6.1081   6.8560   7.0860

          k = 0.4100 0.2367 0.0000 ( 28646 PWs)   bands (ev):

   -61.8379 -48.5577 -48.5568 -48.5531 -48.5529 -48.5170 -48.5164 -48.5161
   -48.5152 -48.4972 -48.4948 -36.1161 -36.0091 -35.9102 -13.8333 -13.5813
    -6.7169  -5.8400  -5.0484  -3.8527  -3.0502  -2.0775  -1.8466   0.8736
     1.0775   2.3025   2.9797   4.9767   6.0503   6.1177   6.8831   7.1562

          k = 0.4150 0.2396 0.0000 ( 28660 PWs)   bands (ev):

   -61.8377 -48.5577 -48.5568 -48.5531 -48.5529 -48.5171 -48.5164 -48.5161
   -48.5152 -48.4972 -48.4948 -36.1185 -36.0085 -35.9108 -13.8131 -13.5711
    -6.7447  -5.8654  -5.0495  -3.8631  -3.0575  -2.0626  -1.8348   0.8722
     1.0945   2.3200   2.9841   4.9164   6.0795   6.1265   6.9093   7.2266

          k = 0.4200 0.2425 0.0000 ( 28656 PWs)   bands (ev):

   -61.8375 -48.5577 -48.5568 -48.5531 -48.5528 -48.5171 -48.5164 -48.5161
   -48.5152 -48.4972 -48.4948 -36.1207 -36.0080 -35.9113 -13.7938 -13.5614
    -6.7712  -5.8895  -5.0508  -3.8729  -3.0643  -2.0477  -1.8236   0.8712
     1.1112   2.3364   2.9881   4.8579   6.1082   6.1349   6.9341   7.2969

          k = 0.4250 0.2454 0.0000 ( 28658 PWs)   bands (ev):

   -61.8373 -48.5578 -48.5568 -48.5530 -48.5528 -48.5171 -48.5164 -48.5161
   -48.5152 -48.4972 -48.4948 -36.1228 -36.0075 -35.9118 -13.7755 -13.5521
    -6.7965  -5.9124  -5.0522  -3.8822  -3.0707  -2.0330  -1.8131   0.8704
     1.1275   2.3520   2.9919   4.8015   6.1361   6.1428   6.9572   7.3670

          k = 0.4300 0.2483 0.0000 ( 28658 PWs)   bands (ev):

   -61.8371 -48.5578 -48.5568 -48.5530 -48.5528 -48.5171 -48.5164 -48.5161
   -48.5152 -48.4972 -48.4948 -36.1247 -36.0071 -35.9122 -13.7581 -13.5434
    -6.8205  -5.9339  -5.0537  -3.8908  -3.0766  -2.0184  -1.8034   0.8698
     1.1434   2.3665   2.9954   4.7476   6.1506   6.1631   6.9781   7.4364

          k = 0.4350 0.2511 0.0000 ( 28658 PWs)   bands (ev):

   -61.8369 -48.5578 -48.5568 -48.5530 -48.5527 -48.5171 -48.5164 -48.5161
   -48.5152 -48.4972 -48.4947 -36.1265 -36.0067 -35.9127 -13.7417 -13.5353
    -6.8431  -5.9540  -5.0553  -3.8989  -3.0821  -2.0043  -1.7943   0.8695
     1.1586   2.3800   2.9987   4.6962   6.1582   6.1891   6.9967   7.5043

          k = 0.4400 0.2540 0.0000 ( 28664 PWs)   bands (ev):

   -61.8368 -48.5578 -48.5568 -48.5529 -48.5527 -48.5171 -48.5165 -48.5161
   -48.5152 -48.4971 -48.4947 -36.1282 -36.0063 -35.9131 -13.7265 -13.5276
    -6.8643  -5.9728  -5.0570  -3.9064  -3.0871  -1.9906  -1.7859   0.8693
     1.1733   2.3925   3.0017   4.6477   6.1656   6.2140   7.0128   7.5698

          k = 0.4450 0.2569 0.0000 ( 28680 PWs)   bands (ev):

   -61.8366 -48.5578 -48.5568 -48.5529 -48.5527 -48.5172 -48.5165 -48.5161
   -48.5152 -48.4971 -48.4947 -36.1298 -36.0059 -35.9134 -13.7122 -13.5205
    -6.8839  -5.9902  -5.0586  -3.9133  -3.0917  -1.9776  -1.7782   0.8693
     1.1872   2.4041   3.0044   4.6022   6.1729   6.2376   7.0264   7.6316

          k = 0.4500 0.2598 0.0000 ( 28680 PWs)   bands (ev):

   -61.8365 -48.5578 -48.5568 -48.5529 -48.5527 -48.5172 -48.5165 -48.5161
   -48.5152 -48.4971 -48.4947 -36.1313 -36.0056 -35.9138 -13.6992 -13.5140
    -6.9020  -6.0061  -5.0602  -3.9196  -3.0959  -1.9653  -1.7712   0.8694
     1.2003   2.4146   3.0069   4.5599   6.1801   6.2597   7.0375   7.6881

          k = 0.4550 0.2627 0.0000 ( 28690 PWs)   bands (ev):

   -61.8364 -48.5578 -48.5568 -48.5529 -48.5526 -48.5172 -48.5165 -48.5161
   -48.5152 -48.4971 -48.4947 -36.1326 -36.0053 -35.9141 -13.6872 -13.5081
    -6.9186  -6.0206  -5.0617  -3.9254  -3.0996  -1.9538  -1.7648   0.8695
     1.2125   2.4241   3.0091   4.5211   6.1870   6.2803   7.0464   7.7377

          k = 0.4600 0.2656 0.0000 ( 28692 PWs)   bands (ev):

   -61.8363 -48.5578 -48.5568 -48.5528 -48.5526 -48.5172 -48.5165 -48.5161
   -48.5152 -48.4971 -48.4947 -36.1337 -36.0050 -35.9143 -13.6765 -13.5027
    -6.9335  -6.0336  -5.0631  -3.9305  -3.1030  -1.9433  -1.7592   0.8698
     1.2237   2.4326   3.0111   4.4857   6.1935   6.2992   7.0532   7.7792

          k = 0.4650 0.2685 0.0000 ( 28692 PWs)   bands (ev):

   -61.8362 -48.5578 -48.5568 -48.5528 -48.5526 -48.5172 -48.5165 -48.5161
   -48.5152 -48.4971 -48.4947 -36.1348 -36.0048 -35.9146 -13.6669 -13.4980
    -6.9467  -6.0451  -5.0645  -3.9350  -3.1059  -1.9338  -1.7542   0.8700
     1.2338   2.4401   3.0129   4.4542   6.1997   6.3163   7.0581   7.8126

          k = 0.4700 0.2714 0.0000 ( 28704 PWs)   bands (ev):

   -61.8361 -48.5578 -48.5568 -48.5528 -48.5526 -48.5172 -48.5165 -48.5161
   -48.5152 -48.4971 -48.4947 -36.1357 -36.0046 -35.9148 -13.6586 -13.4939
    -6.9582  -6.0552  -5.0657  -3.9389  -3.1085  -1.9254  -1.7498   0.8703
     1.2428   2.4466   3.0144   4.4264   6.2053   6.3314   7.0616   7.8385

          k = 0.4750 0.2742 0.0000 ( 28710 PWs)   bands (ev):

   -61.8360 -48.5578 -48.5568 -48.5528 -48.5526 -48.5172 -48.5165 -48.5162
   -48.5152 -48.4971 -48.4947 -36.1364 -36.0044 -35.9150 -13.6515 -13.4904
    -6.9681  -6.0637  -5.0667  -3.9423  -3.1106  -1.9181  -1.7462   0.8706
     1.2505   2.4520   3.0156   4.4028   6.2104   6.3444   7.0640   7.8581

          k = 0.4800 0.2771 0.0000 ( 28718 PWs)   bands (ev):

   -61.8360 -48.5578 -48.5568 -48.5528 -48.5526 -48.5172 -48.5165 -48.5162
   -48.5152 -48.4971 -48.4947 -36.1371 -36.0042 -35.9151 -13.6457 -13.4875
    -6.9761  -6.0706  -5.0676  -3.9450  -3.1124  -1.9121  -1.7432   0.8708
     1.2570   2.4565   3.0167   4.3832   6.2146   6.3552   7.0654   7.8725

          k = 0.4850 0.2800 0.0000 ( 28698 PWs)   bands (ev):

   -61.8359 -48.5578 -48.5568 -48.5528 -48.5526 -48.5172 -48.5165 -48.5162
   -48.5152 -48.4971 -48.4947 -36.1375 -36.0041 -35.9152 -13.6411 -13.4853
    -6.9824  -6.0761  -5.0683  -3.9471  -3.1137  -1.9074  -1.7409   0.8710
     1.2620   2.4600   3.0175   4.3679   6.2181   6.3637   7.0662   7.8827

          k = 0.4900 0.2829 0.0000 ( 28700 PWs)   bands (ev):

   -61.8359 -48.5578 -48.5568 -48.5528 -48.5525 -48.5172 -48.5165 -48.5162
   -48.5152 -48.4971 -48.4946 -36.1379 -36.0040 -35.9153 -13.6379 -13.4836
    -6.9869  -6.0800  -5.0688  -3.9486  -3.1147  -1.9040  -1.7392   0.8712
     1.2657   2.4625   3.0180   4.3569   6.2206   6.3699   7.0666   7.8895

          k = 0.4950 0.2858 0.0000 ( 28698 PWs)   bands (ev):

   -61.8359 -48.5578 -48.5568 -48.5528 -48.5525 -48.5172 -48.5165 -48.5162
   -48.5152 -48.4971 -48.4946 -36.1381 -36.0040 -35.9154 -13.6359 -13.4827
    -6.9896  -6.0823  -5.0691  -3.9495  -3.1153  -1.9019  -1.7382   0.8713
     1.2679   2.4640   3.0184   4.3503   6.2222   6.3736   7.0668   7.8934

          k = 0.5000 0.2887 0.0000 ( 28720 PWs)   bands (ev):

   -61.8359 -48.5578 -48.5568 -48.5528 -48.5525 -48.5172 -48.5165 -48.5162
   -48.5152 -48.4971 -48.4946 -36.1382 -36.0040 -35.9154 -13.6353 -13.4824
    -6.9905  -6.0831  -5.0692  -3.9498  -3.1155  -1.9012  -1.7379   0.8713
     1.2686   2.4645   3.0185   4.3481   6.2227   6.3749   7.0669   7.8947

     Writing output data file ./mose2.save/
 
     init_run     :      0.45s CPU      0.53s WALL (       1 calls)
     electrons    :     44.49s CPU     48.00s WALL (       1 calls)

     Called by init_run:
     wfcinit      :      0.00s CPU      0.02s WALL (       1 calls)
     wfcinit:atom :      0.03s CPU      0.03s WALL (      26 calls)
     wfcinit:wfcr :      1.30s CPU      1.34s WALL (      26 calls)
     potinit      :      0.09s CPU      0.12s WALL (       1 calls)
     hinit0       :      0.27s CPU      0.28s WALL (       1 calls)

     Called by electrons:
     c_bands      :     44.49s CPU     47.99s WALL (       1 calls)
     v_of_rho     :      0.03s CPU      0.04s WALL (       1 calls)
     v_h          :      0.00s CPU      0.00s WALL (       1 calls)
     v_xc         :      0.03s CPU      0.03s WALL (       1 calls)
     newd         :      0.04s CPU      0.04s WALL (       1 calls)
     PAW_pot      :      0.04s CPU      0.05s WALL (       1 calls)

     Called by c_bands:
     init_us_2    :      0.03s CPU      0.03s WALL (      26 calls)
     cegterg      :     37.14s CPU     38.84s WALL (      76 calls)

     Called by sum_band:

     Called by *egterg:
     cdiaghg      :      3.38s CPU      3.46s WALL (    1216 calls)
     cegterg:over :      2.52s CPU      2.65s WALL (    1190 calls)
     cegterg:upda :      1.62s CPU      1.73s WALL (    1190 calls)
     cegterg:last :      4.50s CPU      4.67s WALL (     592 calls)
     cdiaghg:chol :      0.24s CPU      0.25s WALL (    1216 calls)
     cdiaghg:inve :      0.16s CPU      0.16s WALL (    1216 calls)
     cdiaghg:para :      0.24s CPU      0.24s WALL (    2432 calls)
     h_psi        :     24.34s CPU     25.52s WALL (    1292 calls)
     s_psi        :      1.03s CPU      1.07s WALL (    1292 calls)
     g_psi        :      0.17s CPU      0.17s WALL (    1190 calls)

     Called by h_psi:
     h_psi:calbec :      1.11s CPU      1.16s WALL (    1292 calls)
     vloc_psi     :     21.87s CPU     22.98s WALL (    1292 calls)
     add_vuspsi   :      1.16s CPU      1.18s WALL (    1292 calls)

     General routines
     calbec       :      1.10s CPU      1.15s WALL (    1292 calls)
     fft          :      0.03s CPU      0.04s WALL (      12 calls)
     fftw         :     18.84s CPU     19.79s WALL (   38104 calls)
     davcio       :      0.02s CPU      1.36s WALL (      52 calls)
 
     Parallel routines
     fft_scatt_xy :      3.29s CPU      3.48s WALL (   38116 calls)
     fft_scatt_yz :      6.76s CPU      7.11s WALL (   38116 calls)

     PAW routines
     PAW_pot      :      0.04s CPU      0.05s WALL (       1 calls)
 
     PWSCF        :     46.55s CPU     52.02s WALL

 
   This run was terminated on:  22:26: 7  13Jun2022            

=------------------------------------------------------------------------------=
   JOB DONE.
=------------------------------------------------------------------------------=
