
     Program PWSCF v.6.6 starts on 13Jun2022 at 22:27: 7 

     This program is part of the open-source Quantum ESPRESSO suite
     for quantum simulation of materials; please cite
         "P. Giannozzi et al., J. Phys.:Condens. Matter 21 395502 (2009);
         "P. Giannozzi et al., J. Phys.:Condens. Matter 29 465901 (2017);
          URL http://www.quantum-espresso.org", 
     in publications or presentations arising from this work. More details at
     http://www.quantum-espresso.org/quote

     Parallel version (MPI), running on    40 processors

     MPI processes distributed on     1 nodes
     K-points division:     npool     =       4
     R & G space division:  proc/nbgrp/npool/nimage =      10
     Fft bands division:     nmany     =       1
     Waiting for input...
     Reading input from standard input
Warning: card &CELL ignored
Warning: card PRESS_CONV_THR=0.1 ignored
Warning: card CELL_DOFREE='2DXY' ignored
Warning: card / ignored

     Current dimensions of program PWSCF are:
     Max number of different atomic species (ntypx) = 10
     Max number of k-points (npk) =  40000
     Max angular momentum in pseudopotentials (lmaxx) =  3
     file Mo.pbesol-spn-kjpaw_psl.1.0.0.UPF: wavefunction(s)  4S 4D renormalized
     file Se.pbesol-dn-kjpaw_psl.1.0.0.UPF: wavefunction(s)  4S 4P 3D renormalized

     Subspace diagonalization in iterative solution of the eigenvalue problem:
     one sub-group per band group will be used
     scalapack distributed-memory algorithm (size of sub-group:  3*  3 procs)

 
     Parallelization info
     --------------------
     sticks:   dense  smooth     PW     G-vecs:    dense   smooth      PW
     Min         106     106     30                22894    22894    3442
     Max         107     107     31                22929    22929    3471
     Sum        1069    1069    301               229233   229233   34479
 


     bravais-lattice index     =            4
     lattice parameter (alat)  =       6.1734  a.u.
     unit-cell volume          =    1646.5987 (a.u.)^3
     number of atoms/cell      =            3
     number of atomic types    =            2
     number of electrons       =        46.00
     number of Kohn-Sham states=           23
     kinetic-energy cutoff     =     102.0000  Ry
     charge density cutoff     =     408.0000  Ry
     convergence threshold     =      1.0E-10
     mixing beta               =       0.7000
     number of iterations used =            8  plain     mixing
     Exchange-correlation= SLA PW PSX PSC
                           (   1   4  10   8   0   0   0)

     celldm(1)=   6.173437  celldm(2)=   0.000000  celldm(3)=   8.081203
     celldm(4)=   0.000000  celldm(5)=   0.000000  celldm(6)=   0.000000

     crystal axes: (cart. coord. in units of alat)
               a(1) = (   1.000000   0.000000   0.000000 )  
               a(2) = (  -0.500000   0.866025   0.000000 )  
               a(3) = (   0.000000   0.000000   8.081203 )  

     reciprocal axes: (cart. coord. in units 2 pi/alat)
               b(1) = (  1.000000  0.577350  0.000000 )  
               b(2) = (  0.000000  1.154701  0.000000 )  
               b(3) = (  0.000000  0.000000  0.123744 )  


     PseudoPot. # 1 for Mo read from file:
     /scratch1/fanchem/MoSe2/pp/Mo.pbesol-spn-kjpaw_psl.1.0.0.UPF
     MD5 check sum: 2f69e612011640a3284f00f973390535
     Pseudo is Projector augmented-wave + core cor, Zval = 14.0
     Generated using "atomic" code by A. Dal Corso v.6.3
     Shape of augmentation charge: PSQ
     Using radial grid of 1229 points,  6 beta functions with: 
                l(1) =   0
                l(2) =   0
                l(3) =   1
                l(4) =   1
                l(5) =   2
                l(6) =   2
     Q(r) pseudized with 0 coefficients 


     PseudoPot. # 2 for Se read from file:
     /scratch1/fanchem/MoSe2/pp/Se.pbesol-dn-kjpaw_psl.1.0.0.UPF
     MD5 check sum: 96421e4d850e5e17b279567c6a17bf72
     Pseudo is Projector augmented-wave + core cor, Zval = 16.0
     Generated using "atomic" code by A. Dal Corso v.6.3
     Shape of augmentation charge: PSQ
     Using radial grid of 1211 points,  6 beta functions with: 
                l(1) =   0
                l(2) =   0
                l(3) =   1
                l(4) =   1
                l(5) =   2
                l(6) =   2
     Q(r) pseudized with 0 coefficients 


     atomic species   valence    mass     pseudopotential
        Mo            14.00    95.95000     Mo( 1.00)
        Se            16.00    78.96000     Se( 1.00)

     12 Sym. Ops. (no inversion) found


                                    s                        frac. trans.

      isym =  1     identity                                     

 cryst.   s( 1) = (     1          0          0      )
                  (     0          1          0      )
                  (     0          0          1      )

 cart.    s( 1) = (  1.0000000  0.0000000  0.0000000 )
                  (  0.0000000  1.0000000  0.0000000 )
                  (  0.0000000  0.0000000  1.0000000 )


      isym =  2     180 deg rotation - cart. axis [0,1,0]        

 cryst.   s( 2) = (    -1          0          0      )
                  (     1          1          0      )
                  (     0          0         -1      )

 cart.    s( 2) = ( -1.0000000  0.0000000  0.0000000 )
                  (  0.0000000  1.0000000  0.0000000 )
                  (  0.0000000  0.0000000 -1.0000000 )


      isym =  3     120 deg rotation - cryst. axis [0,0,1]       

 cryst.   s( 3) = (     0          1          0      )
                  (    -1         -1          0      )
                  (     0          0          1      )

 cart.    s( 3) = ( -0.5000000 -0.8660254  0.0000000 )
                  (  0.8660254 -0.5000000  0.0000000 )
                  (  0.0000000  0.0000000  1.0000000 )


      isym =  4     120 deg rotation - cryst. axis [0,0,-1]      

 cryst.   s( 4) = (    -1         -1          0      )
                  (     1          0          0      )
                  (     0          0          1      )

 cart.    s( 4) = ( -0.5000000  0.8660254  0.0000000 )
                  ( -0.8660254 -0.5000000  0.0000000 )
                  (  0.0000000  0.0000000  1.0000000 )


      isym =  5     180 deg rotation - cryst. axis [1,-1,0]      

 cryst.   s( 5) = (     0         -1          0      )
                  (    -1          0          0      )
                  (     0          0         -1      )

 cart.    s( 5) = (  0.5000000 -0.8660254  0.0000000 )
                  ( -0.8660254 -0.5000000  0.0000000 )
                  (  0.0000000  0.0000000 -1.0000000 )


      isym =  6     180 deg rotation - cryst. axis [2,1,0]       

 cryst.   s( 6) = (     1          1          0      )
                  (     0         -1          0      )
                  (     0          0         -1      )

 cart.    s( 6) = (  0.5000000  0.8660254  0.0000000 )
                  (  0.8660254 -0.5000000  0.0000000 )
                  (  0.0000000  0.0000000 -1.0000000 )


      isym =  7     inv. 180 deg rotation - cart. axis [0,0,1]   

 cryst.   s( 7) = (     1          0          0      )
                  (     0          1          0      )
                  (     0          0         -1      )

 cart.    s( 7) = (  1.0000000  0.0000000  0.0000000 )
                  (  0.0000000  1.0000000  0.0000000 )
                  (  0.0000000  0.0000000 -1.0000000 )


      isym =  8     inv. 180 deg rotation - cart. axis [1,0,0]   

 cryst.   s( 8) = (    -1          0          0      )
                  (     1          1          0      )
                  (     0          0          1      )

 cart.    s( 8) = ( -1.0000000  0.0000000  0.0000000 )
                  (  0.0000000  1.0000000  0.0000000 )
                  (  0.0000000  0.0000000  1.0000000 )


      isym =  9     inv.  60 deg rotation - cryst. axis [0,0,1]  

 cryst.   s( 9) = (    -1         -1          0      )
                  (     1          0          0      )
                  (     0          0         -1      )

 cart.    s( 9) = ( -0.5000000  0.8660254  0.0000000 )
                  ( -0.8660254 -0.5000000  0.0000000 )
                  (  0.0000000  0.0000000 -1.0000000 )


      isym = 10     inv.  60 deg rotation - cryst. axis [0,0,-1] 

 cryst.   s(10) = (     0          1          0      )
                  (    -1         -1          0      )
                  (     0          0         -1      )

 cart.    s(10) = ( -0.5000000 -0.8660254  0.0000000 )
                  (  0.8660254 -0.5000000  0.0000000 )
                  (  0.0000000  0.0000000 -1.0000000 )


      isym = 11     inv. 180 deg rotation - cryst. axis [0,1,0]  

 cryst.   s(11) = (     1          1          0      )
                  (     0         -1          0      )
                  (     0          0          1      )

 cart.    s(11) = (  0.5000000  0.8660254  0.0000000 )
                  (  0.8660254 -0.5000000  0.0000000 )
                  (  0.0000000  0.0000000  1.0000000 )


      isym = 12     inv. 180 deg rotation - cryst. axis [1,1,0]  

 cryst.   s(12) = (     0         -1          0      )
                  (    -1          0          0      )
                  (     0          0          1      )

 cart.    s(12) = (  0.5000000 -0.8660254  0.0000000 )
                  ( -0.8660254 -0.5000000  0.0000000 )
                  (  0.0000000  0.0000000  1.0000000 )


     point group D_3h (-62m)
     there are  6 classes
     the character table:

       E     2C3   3C2   s_h   2S3   3s_v 
A'_1   1.00  1.00  1.00  1.00  1.00  1.00
A'_2   1.00  1.00 -1.00  1.00  1.00 -1.00
E'     2.00 -1.00  0.00  2.00 -1.00  0.00
A''1   1.00  1.00  1.00 -1.00 -1.00 -1.00
A''2   1.00  1.00 -1.00 -1.00 -1.00  1.00
E''    2.00 -1.00  0.00 -2.00  1.00  0.00

     the symmetry operations in each class and the name of the first element:

     E        1
          identity                                               
     2C3      3    4
          120 deg rotation - cryst. axis [0,0,1]                 
     3C2      2    6    5
          180 deg rotation - cart. axis [0,1,0]                  
     s_h      7
          inv. 180 deg rotation - cart. axis [0,0,1]             
     2S3      9   10
          inv.  60 deg rotation - cryst. axis [0,0,1]            
     3s_v     8   11   12
          inv. 180 deg rotation - cart. axis [1,0,0]             

   Cartesian axes

     site n.     atom                  positions (alat units)
         1           Mo  tau(   1) = (  -0.0000000   0.5773503   4.0406015  )
         2           Se  tau(   2) = (   0.5000000   0.2886751   3.5309875  )
         3           Se  tau(   3) = (   0.5000000   0.2886751   4.5502155  )

   Crystallographic axes

     site n.     atom                  positions (cryst. coord.)
         1           Mo  tau(   1) = (  0.3333333  0.6666667  0.5000000  )
         2           Se  tau(   2) = (  0.6666667  0.3333333  0.4369383  )
         3           Se  tau(   3) = (  0.6666667  0.3333333  0.5630617  )

     number of k points=    10
                       cart. coord. in units 2pi/alat
        k(    1) = (   0.0000000   0.0000000   0.0000000), wk =   0.0312500
        k(    2) = (   0.0000000   0.1443376   0.0000000), wk =   0.1875000
        k(    3) = (   0.0000000   0.2886751   0.0000000), wk =   0.1875000
        k(    4) = (   0.0000000   0.4330127   0.0000000), wk =   0.1875000
        k(    5) = (   0.0000000  -0.5773503   0.0000000), wk =   0.0937500
        k(    6) = (   0.1250000   0.2165064   0.0000000), wk =   0.1875000
        k(    7) = (   0.1250000   0.3608439   0.0000000), wk =   0.3750000
        k(    8) = (   0.1250000   0.5051815   0.0000000), wk =   0.3750000
        k(    9) = (   0.2500000   0.4330127   0.0000000), wk =   0.1875000
        k(   10) = (   0.2500000   0.5773503   0.0000000), wk =   0.1875000

                       cryst. coord.
        k(    1) = (   0.0000000   0.0000000   0.0000000), wk =   0.0312500
        k(    2) = (   0.0000000   0.1250000   0.0000000), wk =   0.1875000
        k(    3) = (   0.0000000   0.2500000   0.0000000), wk =   0.1875000
        k(    4) = (   0.0000000   0.3750000   0.0000000), wk =   0.1875000
        k(    5) = (   0.0000000  -0.5000000   0.0000000), wk =   0.0937500
        k(    6) = (   0.1250000   0.1250000   0.0000000), wk =   0.1875000
        k(    7) = (   0.1250000   0.2500000   0.0000000), wk =   0.3750000
        k(    8) = (   0.1250000   0.3750000   0.0000000), wk =   0.3750000
        k(    9) = (   0.2500000   0.2500000   0.0000000), wk =   0.1875000
        k(   10) = (   0.2500000   0.3750000   0.0000000), wk =   0.1875000

     Dense  grid:   229233 G-vectors     FFT dimensions: (  40,  40, 324)

     Dynamical RAM for                 wfc:       1.01 MB

     Dynamical RAM for     wfc (w. buffer):       4.02 MB

     Dynamical RAM for           str. fact:       0.70 MB

     Dynamical RAM for           local pot:       0.00 MB

     Dynamical RAM for          nlocal pot:       2.36 MB

     Dynamical RAM for                qrad:       3.24 MB

     Dynamical RAM for          rho,v,vnew:       2.26 MB

     Dynamical RAM for               rhoin:       0.75 MB

     Dynamical RAM for            rho*nmix:       5.60 MB

     Dynamical RAM for           G-vectors:       1.49 MB

     Dynamical RAM for          h,s,v(r/c):       0.01 MB

     Dynamical RAM for          <psi|beta>:       0.02 MB

     Dynamical RAM for                 psi:       2.01 MB

     Dynamical RAM for                hpsi:       2.01 MB

     Dynamical RAM for                spsi:       2.01 MB

     Dynamical RAM for      wfcinit/wfcrot:       2.47 MB

     Dynamical RAM for           addusdens:      16.70 MB

     Dynamical RAM for          addusforce:      16.80 MB

     Dynamical RAM for         addusstress:      17.71 MB

     Estimated static dynamical RAM per process >      23.48 MB

     Estimated max dynamical RAM per process >      41.19 MB

     Estimated total dynamical RAM >       1.61 GB

     Initial potential from superposition of free atoms

     starting charge   45.99906, renormalised to   46.00000

     negative rho (up, down):  1.183E-04 0.000E+00
     Starting wfcs are   28 randomized atomic wfcs
     Checking if some PAW data can be deallocated... 
       PAW data deallocated on   26 nodes for type:  1
       PAW data deallocated on   14 nodes for type:  2

     total cpu time spent up to now is        2.0 secs

     Self-consistent Calculation

     iteration #  1     ecut=   102.00 Ry     beta= 0.70
     Davidson diagonalization with overlap
     ethr =  1.00E-02,  avg # of iterations =  2.0

     Threshold (ethr) on eigenvalues was too large:
     Diagonalizing with lowered threshold

     Davidson diagonalization with overlap
     ethr =  5.15E-04,  avg # of iterations =  2.2

     negative rho (up, down):  1.104E-04 0.000E+00

     total cpu time spent up to now is        3.0 secs

     total energy              =   -1156.64003179 Ry
     estimated scf accuracy    <       0.26840156 Ry

     iteration #  2     ecut=   102.00 Ry     beta= 0.70
     Davidson diagonalization with overlap
     ethr =  5.83E-04,  avg # of iterations =  5.8

     negative rho (up, down):  8.666E-05 0.000E+00

     total cpu time spent up to now is        3.7 secs

     total energy              =   -1156.46014260 Ry
     estimated scf accuracy    <       3.01878739 Ry

     iteration #  3     ecut=   102.00 Ry     beta= 0.70
     Davidson diagonalization with overlap
     ethr =  5.83E-04,  avg # of iterations =  6.1

     negative rho (up, down):  1.263E-04 0.000E+00

     total cpu time spent up to now is        4.4 secs

     total energy              =   -1156.80877961 Ry
     estimated scf accuracy    <       0.00500582 Ry

     iteration #  4     ecut=   102.00 Ry     beta= 0.70
     Davidson diagonalization with overlap
     ethr =  1.09E-05,  avg # of iterations =  8.7

     negative rho (up, down):  1.094E-04 0.000E+00

     total cpu time spent up to now is        5.2 secs

     total energy              =   -1156.81230279 Ry
     estimated scf accuracy    <       0.02131639 Ry

     iteration #  5     ecut=   102.00 Ry     beta= 0.70
     Davidson diagonalization with overlap
     ethr =  1.09E-05,  avg # of iterations =  4.4

     negative rho (up, down):  1.096E-04 0.000E+00

     total cpu time spent up to now is        5.8 secs

     total energy              =   -1156.81186805 Ry
     estimated scf accuracy    <       0.00493701 Ry

     iteration #  6     ecut=   102.00 Ry     beta= 0.70
     Davidson diagonalization with overlap
     ethr =  1.07E-05,  avg # of iterations =  5.2

     negative rho (up, down):  1.175E-04 0.000E+00

     total cpu time spent up to now is        6.5 secs

     total energy              =   -1156.81306755 Ry
     estimated scf accuracy    <       0.00075407 Ry

     iteration #  7     ecut=   102.00 Ry     beta= 0.70
     Davidson diagonalization with overlap
     ethr =  1.64E-06,  avg # of iterations =  3.2

     negative rho (up, down):  1.190E-04 0.000E+00

     total cpu time spent up to now is        7.0 secs

     total energy              =   -1156.81308817 Ry
     estimated scf accuracy    <       0.00024601 Ry

     iteration #  8     ecut=   102.00 Ry     beta= 0.70
     Davidson diagonalization with overlap
     ethr =  5.35E-07,  avg # of iterations =  4.7

     negative rho (up, down):  1.192E-04 0.000E+00

     total cpu time spent up to now is        7.7 secs

     total energy              =   -1156.81311523 Ry
     estimated scf accuracy    <       0.00004806 Ry

     iteration #  9     ecut=   102.00 Ry     beta= 0.70
     Davidson diagonalization with overlap
     ethr =  1.04E-07,  avg # of iterations =  2.6

     negative rho (up, down):  1.202E-04 0.000E+00

     total cpu time spent up to now is        8.2 secs

     total energy              =   -1156.81310545 Ry
     estimated scf accuracy    <       0.00005258 Ry

     iteration # 10     ecut=   102.00 Ry     beta= 0.70
     Davidson diagonalization with overlap
     ethr =  1.04E-07,  avg # of iterations =  4.0

     negative rho (up, down):  1.202E-04 0.000E+00

     total cpu time spent up to now is        8.8 secs

     total energy              =   -1156.81311132 Ry
     estimated scf accuracy    <       0.00000221 Ry

     iteration # 11     ecut=   102.00 Ry     beta= 0.70
     Davidson diagonalization with overlap
     ethr =  4.80E-09,  avg # of iterations =  5.6

     negative rho (up, down):  1.202E-04 0.000E+00

     total cpu time spent up to now is        9.5 secs

     total energy              =   -1156.81311218 Ry
     estimated scf accuracy    <       0.00000017 Ry

     iteration # 12     ecut=   102.00 Ry     beta= 0.70
     Davidson diagonalization with overlap
     ethr =  3.60E-10,  avg # of iterations =  3.3

     negative rho (up, down):  1.202E-04 0.000E+00

     total cpu time spent up to now is       10.1 secs

     total energy              =   -1156.81311220 Ry
     estimated scf accuracy    <       0.00000024 Ry

     iteration # 13     ecut=   102.00 Ry     beta= 0.70
     Davidson diagonalization with overlap
     ethr =  3.60E-10,  avg # of iterations =  1.2

     negative rho (up, down):  1.201E-04 0.000E+00

     total cpu time spent up to now is       10.6 secs

     total energy              =   -1156.81311216 Ry
     estimated scf accuracy    <       0.00000029 Ry

     iteration # 14     ecut=   102.00 Ry     beta= 0.70
     Davidson diagonalization with overlap
     ethr =  3.60E-10,  avg # of iterations =  1.3

     negative rho (up, down):  1.202E-04 0.000E+00

     total cpu time spent up to now is       11.1 secs

     total energy              =   -1156.81311212 Ry
     estimated scf accuracy    <       0.00000018 Ry

     iteration # 15     ecut=   102.00 Ry     beta= 0.70
     Davidson diagonalization with overlap
     ethr =  3.60E-10,  avg # of iterations =  4.3

     negative rho (up, down):  1.202E-04 0.000E+00

     total cpu time spent up to now is       11.7 secs

     total energy              =   -1156.81311214 Ry
     estimated scf accuracy    <          7.2E-09 Ry

     iteration # 16     ecut=   102.00 Ry     beta= 0.70
     Davidson diagonalization with overlap
     ethr =  1.56E-11,  avg # of iterations =  8.0

     negative rho (up, down):  1.202E-04 0.000E+00

     total cpu time spent up to now is       12.5 secs

     total energy              =   -1156.81311212 Ry
     estimated scf accuracy    <       0.00000015 Ry

     iteration # 17     ecut=   102.00 Ry     beta= 0.70
     Davidson diagonalization with overlap
     ethr =  1.56E-11,  avg # of iterations =  8.2

     negative rho (up, down):  1.202E-04 0.000E+00

     total cpu time spent up to now is       13.3 secs

     total energy              =   -1156.81311215 Ry
     estimated scf accuracy    <       0.00000001 Ry

     iteration # 18     ecut=   102.00 Ry     beta= 0.70
     Davidson diagonalization with overlap
     ethr =  1.56E-11,  avg # of iterations =  1.0

     negative rho (up, down):  1.202E-04 0.000E+00

     total cpu time spent up to now is       13.8 secs

     total energy              =   -1156.81311215 Ry
     estimated scf accuracy    <       0.00000002 Ry

     iteration # 19     ecut=   102.00 Ry     beta= 0.70
     Davidson diagonalization with overlap
     ethr =  1.56E-11,  avg # of iterations =  2.0

     negative rho (up, down):  1.202E-04 0.000E+00

     total cpu time spent up to now is       14.4 secs

     total energy              =   -1156.81311215 Ry
     estimated scf accuracy    <          7.2E-09 Ry

     iteration # 20     ecut=   102.00 Ry     beta= 0.70
     Davidson diagonalization with overlap
     ethr =  1.56E-11,  avg # of iterations =  4.8

     negative rho (up, down):  1.202E-04 0.000E+00

     total cpu time spent up to now is       15.0 secs

     End of self-consistent calculation

          k = 0.0000 0.0000 0.0000 ( 28541 PWs)   bands (ev):

   -61.8620 -48.5576 -48.5576 -48.5573 -48.5573 -48.5158 -48.5158 -48.5148
   -48.5148 -48.4993 -48.4972 -36.0687 -35.8487 -35.8487 -15.5323 -14.4889
    -6.7211  -3.2941  -3.2941  -3.1014  -2.2650  -2.2650  -1.5096

     occupation numbers 
     1.0000   1.0000   1.0000   1.0000   1.0000   1.0000   1.0000   1.0000
     1.0000   1.0000   1.0000   1.0000   1.0000   1.0000   1.0000   1.0000
     1.0000   1.0000   1.0000   1.0000   1.0000   1.0000   1.0000

          k = 0.0000 0.1443 0.0000 ( 28519 PWs)   bands (ev):

   -61.8582 -48.5575 -48.5573 -48.5569 -48.5566 -48.5159 -48.5158 -48.5151
   -48.5148 -48.4990 -48.4968 -36.0593 -35.8920 -35.8585 -15.3111 -14.3680
    -6.4564  -3.8336  -3.6459  -3.0716  -2.6060  -2.1087  -1.5787

     occupation numbers 
     1.0000   1.0000   1.0000   1.0000   1.0000   1.0000   1.0000   1.0000
     1.0000   1.0000   1.0000   1.0000   1.0000   1.0000   1.0000   1.0000
     1.0000   1.0000   1.0000   1.0000   1.0000   1.0000   1.0000

          k = 0.0000 0.2887 0.0000 ( 28597 PWs)   bands (ev):

   -61.8489 -48.5575 -48.5572 -48.5552 -48.5549 -48.5161 -48.5160 -48.5160
   -48.5150 -48.4982 -48.4959 -36.0364 -35.9951 -35.8821 -14.7177 -14.0455
    -5.9519  -4.8593  -4.6128  -3.2541  -2.5340  -2.5113  -2.0081

     occupation numbers 
     1.0000   1.0000   1.0000   1.0000   1.0000   1.0000   1.0000   1.0000
     1.0000   1.0000   1.0000   1.0000   1.0000   1.0000   1.0000   1.0000
     1.0000   1.0000   1.0000   1.0000   1.0000   1.0000   1.0000

          k = 0.0000 0.4330 0.0000 ( 28675 PWs)   bands (ev):

   -61.8395 -48.5577 -48.5569 -48.5535 -48.5532 -48.5169 -48.5164 -48.5161
   -48.5152 -48.4974 -48.4950 -36.0965 -36.0134 -35.9055 -13.9963 -13.6644
    -6.4954  -5.6300  -5.0476  -3.7641  -2.9852  -2.1703  -1.9483

     occupation numbers 
     1.0000   1.0000   1.0000   1.0000   1.0000   1.0000   1.0000   1.0000
     1.0000   1.0000   1.0000   1.0000   1.0000   1.0000   1.0000   1.0000
     1.0000   1.0000   1.0000   1.0000   1.0000   1.0000   1.0000

          k = 0.0000-0.5774 0.0000 ( 28720 PWs)   bands (ev):

   -61.8357 -48.5578 -48.5568 -48.5528 -48.5526 -48.5172 -48.5165 -48.5162
   -48.5152 -48.4971 -48.4947 -36.1380 -36.0038 -35.9152 -13.6352 -13.4823
    -6.9905  -6.0830  -5.0691  -3.9497  -3.1154  -1.9011  -1.7379

     occupation numbers 
     1.0000   1.0000   1.0000   1.0000   1.0000   1.0000   1.0000   1.0000
     1.0000   1.0000   1.0000   1.0000   1.0000   1.0000   1.0000   1.0000
     1.0000   1.0000   1.0000   1.0000   1.0000   1.0000   1.0000

          k = 0.1250 0.2165 0.0000 ( 28602 PWs)   bands (ev):

   -61.8516 -48.5573 -48.5572 -48.5558 -48.5555 -48.5162 -48.5158 -48.5157
   -48.5150 -48.4984 -48.4962 -36.0431 -35.9604 -35.8800 -14.9024 -14.1448
    -6.0340  -4.5679  -4.1764  -3.5172  -2.7881  -2.0047  -1.8179

     occupation numbers 
     1.0000   1.0000   1.0000   1.0000   1.0000   1.0000   1.0000   1.0000
     1.0000   1.0000   1.0000   1.0000   1.0000   1.0000   1.0000   1.0000
     1.0000   1.0000   1.0000   1.0000   1.0000   1.0000   1.0000

          k = 0.1250 0.3608 0.0000 ( 28678 PWs)   bands (ev):

   -61.8423 -48.5573 -48.5567 -48.5543 -48.5541 -48.5166 -48.5165 -48.5158
   -48.5152 -48.4977 -48.4953 -36.0521 -36.0201 -35.9139 -14.2321 -13.7824
    -6.0160  -5.1459  -4.9727  -4.1319  -2.9365  -2.4497  -1.8461

     occupation numbers 
     1.0000   1.0000   1.0000   1.0000   1.0000   1.0000   1.0000   1.0000
     1.0000   1.0000   1.0000   1.0000   1.0000   1.0000   1.0000   1.0000
     1.0000   1.0000   1.0000   1.0000   1.0000   1.0000   1.0000

          k = 0.1250 0.5052 0.0000 ( 28672 PWs)   bands (ev):

   -61.8357 -48.5573 -48.5564 -48.5532 -48.5531 -48.5171 -48.5170 -48.5157
   -48.5154 -48.4971 -48.4947 -36.1156 -36.0038 -35.9383 -13.6543 -13.4794
    -6.6600  -6.0043  -4.9682  -4.1553  -2.9988  -2.9963  -1.5368

     occupation numbers 
     1.0000   1.0000   1.0000   1.0000   1.0000   1.0000   1.0000   1.0000
     1.0000   1.0000   1.0000   1.0000   1.0000   1.0000   1.0000   1.0000
     1.0000   1.0000   1.0000   1.0000   1.0000   1.0000   1.0000

          k = 0.2500 0.4330 0.0000 ( 28676 PWs)   bands (ev):

   -61.8357 -48.5565 -48.5557 -48.5538 -48.5538 -48.5172 -48.5168 -48.5157
   -48.5155 -48.4971 -48.4947 -36.0848 -36.0038 -35.9699 -13.6730 -13.4764
    -6.2152  -5.9041  -4.7106  -4.3908  -4.0434  -2.8367  -1.5740

     occupation numbers 
     1.0000   1.0000   1.0000   1.0000   1.0000   1.0000   1.0000   1.0000
     1.0000   1.0000   1.0000   1.0000   1.0000   1.0000   1.0000   1.0000
     1.0000   1.0000   1.0000   1.0000   1.0000   1.0000   1.0000

          k = 0.2500 0.5774 0.0000 ( 28700 PWs)   bands (ev):

   -61.8329 -48.5560 -48.5552 -48.5539 -48.5537 -48.5175 -48.5169 -48.5159
   -48.5154 -48.4969 -48.4945 -36.0885 -36.0029 -35.9971 -13.4120 -13.3325
    -6.2882  -6.1778  -4.9552  -4.3593  -4.2361  -3.2314  -1.2590

     occupation numbers 
     1.0000   1.0000   1.0000   1.0000   1.0000   1.0000   1.0000   1.0000
     1.0000   1.0000   1.0000   1.0000   1.0000   1.0000   1.0000   1.0000
     1.0000   1.0000   1.0000   1.0000   1.0000   1.0000   1.0000

     highest occupied level (ev):    -1.2590

!    total energy              =   -1156.81311215 Ry

     total all-electron energy =    -17807.669495 Ry
     estimated scf accuracy    <          8.9E-11 Ry

     The total energy is the sum of the following terms:
     one-electron contribution =   -4787.52535284 Ry
     hartree contribution      =    2387.75190627 Ry
     xc contribution           =     -75.70466418 Ry
     ewald contribution        =    1817.62553769 Ry
     one-center paw contrib.   =    -498.96053909 Ry
      -> PAW hartree energy AE =      81.93858162 Ry
      -> PAW hartree energy PS =     -81.38767580 Ry
      -> PAW xc energy AE      =    -240.79189589 Ry
      -> PAW xc energy PS      =      17.10441217 Ry
      -> total E_H with PAW    =    2388.30281209 Ry
      -> total E_XC with PAW   =    -299.39214790 Ry

     convergence has been achieved in  20 iterations

     negative rho (up, down):  1.202E-04 0.000E+00

     Forces acting on atoms (cartesian axes, Ry/au):

     atom    1 type  1   force =     0.00000000    0.00000000    0.00000000
     atom    2 type  2   force =     0.00000000    0.00000000    0.00001568
     atom    3 type  2   force =     0.00000000    0.00000000   -0.00001568
     The non-local contrib.  to forces
     atom    1 type  1   force =     0.00000000    0.00000000    0.00000000
     atom    2 type  2   force =     0.00000000   -0.00000000    0.69234749
     atom    3 type  2   force =     0.00000000   -0.00000000   -0.69234749
     The ionic contribution  to forces
     atom    1 type  1   force =     0.00000000   -0.00000000   -0.00000000
     atom    2 type  2   force =    -0.00000000    0.00000000 -142.09896903
     atom    3 type  2   force =    -0.00000000    0.00000000  142.09896903
     The local contribution  to forces
     atom    1 type  1   force =     0.00000002   -0.00000001    0.00000000
     atom    2 type  2   force =    -0.00000010    0.00000006  141.40798429
     atom    3 type  2   force =    -0.00000010    0.00000006 -141.40798429
     The core correction contribution to forces
     atom    1 type  1   force =    -0.00000000    0.00000000   -0.00000000
     atom    2 type  2   force =    -0.00000000    0.00000000   -0.00138722
     atom    3 type  2   force =    -0.00000000    0.00000000    0.00138722
     The Hubbard contrib.    to forces
     atom    1 type  1   force =     0.00000000    0.00000000    0.00000000
     atom    2 type  2   force =     0.00000000    0.00000000    0.00000000
     atom    3 type  2   force =     0.00000000    0.00000000    0.00000000
     The SCF correction term to forces
     atom    1 type  1   force =     0.00000000    0.00000000   -0.00000000
     atom    2 type  2   force =    -0.00000000    0.00000000    0.00004015
     atom    3 type  2   force =    -0.00000000    0.00000000   -0.00004015

     Total force =     0.000022     Total SCF correction =     0.000057
     SCF correction compared to forces is large: reduce conv_thr to get better values


     Computing stress (Cartesian axis) and pressure


     negative rho (up, down):  1.202E-04 0.000E+00
          total   stress  (Ry/bohr**3)                   (kbar)     P=       -0.12
   0.00000009   0.00000000   0.00000000            0.01        0.00        0.00
   0.00000000   0.00000009   0.00000000            0.00        0.01        0.00
  -0.00000000   0.00000000  -0.00000256           -0.00        0.00       -0.38

     kinetic stress (kbar)   6413.31     -0.00      0.00
                               -0.00   6413.31      0.00
                                0.00      0.00   6427.08

     local   stress (kbar)-391655.09     -0.00     -0.00
                               -0.00-391655.09      0.00
                               -0.00      0.00 390581.86

     nonloc. stress (kbar)   1335.38      0.00      0.00
                                0.00   1335.38      0.00
                                0.00      0.00   1341.87

     hartree stress (kbar) 200086.38     -0.00     -0.00
                               -0.00 200086.38     -0.00
                               -0.00     -0.00-186853.98

     exc-cor stress (kbar)  -1643.66      0.00     -0.00
                                0.00  -1643.66      0.00
                               -0.00      0.00  -1644.30

     corecor stress (kbar)   -436.63      0.00      0.00
                                0.00   -436.63     -0.00
                                0.00     -0.00   -436.67

     ewald   stress (kbar) 185900.32      0.00     -0.00
                                0.00 185900.32     -0.00
                               -0.00     -0.00-209416.24

     hubbard stress (kbar)      0.00      0.00      0.00
                                0.00      0.00      0.00
                                0.00      0.00      0.00

     DFT-D   stress (kbar)      0.00      0.00      0.00
                                0.00      0.00      0.00
                                0.00      0.00      0.00

     XDM     stress (kbar)      0.00      0.00      0.00
                                0.00      0.00      0.00
                                0.00      0.00      0.00

     dft-nl  stress (kbar)      0.00      0.00      0.00
                                0.00      0.00      0.00
                                0.00      0.00      0.00

     TS-vdW  stress (kbar)      0.00      0.00      0.00
                                0.00      0.00      0.00
                                0.00      0.00      0.00



     Writing output data file ./mose2.save/
 
     init_run     :      0.68s CPU      0.74s WALL (       1 calls)
     electrons    :     12.53s CPU     12.97s WALL (       1 calls)
     forces       :      0.34s CPU      0.35s WALL (       1 calls)
     stress       :      0.80s CPU      0.80s WALL (       1 calls)

     Called by init_run:
     wfcinit      :      0.14s CPU      0.15s WALL (       1 calls)
     wfcinit:atom :      0.00s CPU      0.00s WALL (       3 calls)
     wfcinit:wfcr :      0.12s CPU      0.13s WALL (       3 calls)
     potinit      :      0.19s CPU      0.21s WALL (       1 calls)
     hinit0       :      0.28s CPU      0.28s WALL (       1 calls)

     Called by electrons:
     c_bands      :      7.81s CPU      8.05s WALL (      21 calls)
     sum_band     :      2.22s CPU      2.29s WALL (      21 calls)
     v_of_rho     :      0.63s CPU      0.67s WALL (      21 calls)
     v_h          :      0.04s CPU      0.05s WALL (      21 calls)
     v_xc         :      0.64s CPU      0.68s WALL (      23 calls)
     newd         :      0.73s CPU      0.76s WALL (      21 calls)
     PAW_pot      :      0.95s CPU      0.98s WALL (      21 calls)
     mix_rho      :      0.23s CPU      0.24s WALL (      21 calls)

     Called by c_bands:
     init_us_2    :      0.15s CPU      0.17s WALL (     135 calls)
     cegterg      :      6.70s CPU      6.89s WALL (      63 calls)

     Called by sum_band:
     sum_band:wei :      0.00s CPU      0.00s WALL (      21 calls)
     sum_band:loo :      1.12s CPU      1.16s WALL (      21 calls)
     sum_band:buf :      0.02s CPU      0.03s WALL (      63 calls)
     sum_band:ini :      0.07s CPU      0.08s WALL (      63 calls)
     sum_band:cal :      0.07s CPU      0.07s WALL (      63 calls)
     sum_band:bec :      0.00s CPU      0.00s WALL (      63 calls)
     addusdens    :      0.91s CPU      0.93s WALL (      21 calls)
     addusd:skk   :      0.00s CPU      0.00s WALL (      42 calls)
     addusd:dgemm :      0.28s CPU      0.29s WALL (      42 calls)
     addusd:qvan2 :      0.55s CPU      0.56s WALL (      42 calls)

     Called by *egterg:
     cdiaghg      :      0.61s CPU      0.62s WALL (     328 calls)
     cegterg:over :      0.35s CPU      0.37s WALL (     268 calls)
     cegterg:upda :      0.23s CPU      0.24s WALL (     268 calls)
     cegterg:last :      0.32s CPU      0.33s WALL (     133 calls)
     cdiaghg:chol :      0.05s CPU      0.05s WALL (     328 calls)
     cdiaghg:inve :      0.03s CPU      0.03s WALL (     328 calls)
     cdiaghg:para :      0.04s CPU      0.04s WALL (     656 calls)
     h_psi        :      4.86s CPU      5.02s WALL (     334 calls)
     s_psi        :      0.22s CPU      0.22s WALL (     334 calls)
     g_psi        :      0.03s CPU      0.03s WALL (     268 calls)

     Called by h_psi:
     h_psi:calbec :      0.25s CPU      0.25s WALL (     334 calls)
     vloc_psi     :      4.30s CPU      4.45s WALL (     334 calls)
     add_vuspsi   :      0.27s CPU      0.27s WALL (     334 calls)

     General routines
     calbec       :      0.33s CPU      0.34s WALL (     412 calls)
     fft          :      0.51s CPU      0.52s WALL (     257 calls)
     ffts         :      0.03s CPU      0.03s WALL (      21 calls)
     fftw         :      4.44s CPU      4.59s WALL (    9183 calls)
 
     Parallel routines
     fft_scatt_xy :      0.85s CPU      0.88s WALL (    9461 calls)
     fft_scatt_yz :      1.83s CPU      1.89s WALL (    9461 calls)

     PAW routines
     PAW_pot      :      0.95s CPU      0.98s WALL (      21 calls)
     PAW_symme    :      0.03s CPU      0.03s WALL (      42 calls)
 
     PWSCF        :     15.59s CPU     16.32s WALL

 
   This run was terminated on:  22:27:23  13Jun2022            

=------------------------------------------------------------------------------=
   JOB DONE.
=------------------------------------------------------------------------------=
