# epsilon and Z* of atoms 1 2
   2.45638306    0.00000000    0.00000000   -0.00000000    2.45638306    0.00000000   -0.00000000   -0.00000000    2.45638306 
   1.16379616    0.00000000   -0.00000000    0.00000000    1.16379616   -0.00000000    0.00000000   -0.00000000    1.16379616 
  -1.16379616   -0.00000000    0.00000000   -0.00000000   -1.16379616    0.00000000   -0.00000000    0.00000000   -1.16379616 
