
     Program PHONON v.6.6 starts on 22Mar2022 at  0:40:50 

     This program is part of the open-source Quantum ESPRESSO suite
     for quantum simulation of materials; please cite
         "P. Giannozzi et al., J. Phys.:Condens. Matter 21 395502 (2009);
         "P. Giannozzi et al., J. Phys.:Condens. Matter 29 465901 (2017);
          URL http://www.quantum-espresso.org", 
     in publications or presentations arising from this work. More details at
     http://www.quantum-espresso.org/quote

     Parallel version (MPI), running on    48 processors

     MPI processes distributed on     2 nodes
     K-points division:     npool     =       2
     R & G space division:  proc/nbgrp/npool/nimage =      24
     Fft bands division:     nmany     =       1

     Reading xml data from directory:

     ./mose2.save/
     file Mo.pbesol-spn-kjpaw_psl.1.0.0.UPF: wavefunction(s)  4S 4D renormalized
     file Se.pbesol-dn-kjpaw_psl.1.0.0.UPF: wavefunction(s)  4S 4P 3D renormalized

     IMPORTANT: XC functional enforced from input :
     Exchange-correlation= PBESOL
                           (   1   4  10   8   0   0   0)
     Any further DFT definition will be discarded
     Please, verify this is what you really want

 
     Parallelization info
     --------------------
     sticks:   dense  smooth     PW     G-vecs:    dense   smooth      PW
     Min          44      44     12                 9532     9532    1412
     Max          45      45     13                 9567     9567    1447
     Sum        1069    1069    301               229233   229233   34335
 

     negative rho (up, down):  1.202E-04 0.000E+00
     Reading collected, re-writing distributed wavefunctions


     Dynamical matrices for ( 8, 8, 1)  uniform grid of q-points
     (  10 q-points):
       N         xq(1)         xq(2)         xq(3) 
       1   0.000000000   0.000000000   0.000000000
       2   0.000000000   0.144337567   0.000000000
       3   0.000000000   0.288675135   0.000000000
       4   0.000000000   0.433012702   0.000000000
       5   0.000000000  -0.577350269   0.000000000
       6   0.125000000   0.216506351   0.000000000
       7   0.125000000   0.360843918   0.000000000
       8   0.125000000   0.505181486   0.000000000
       9   0.250000000   0.433012702   0.000000000
      10   0.250000000   0.577350269   0.000000000

     Saving dvscf to file. Distribute only q points, not irreducible represetations.

     Calculation of q =    0.0000000   0.0000000   0.0000000

     phonon                                                                     

     bravais-lattice index     =            4
     lattice parameter (alat)  =       6.1734  a.u.
     unit-cell volume          =    1646.5987 (a.u.)^3
     number of atoms/cell      =            3
     number of atomic types    =            2
     kinetic-energy cut-off    =     102.0000  Ry
     charge density cut-off    =     408.0000  Ry
     convergence threshold     =      1.0E-22
     beta                      =       0.7000
     number of iterations used =            4
     Exchange-correlation= PBESOL
                           (   1   4  10   8   0   0   0)


     celldm(1)=    6.17344  celldm(2)=    0.00000  celldm(3)=    8.08120
     celldm(4)=    0.00000  celldm(5)=    0.00000  celldm(6)=    0.00000

     crystal axes: (cart. coord. in units of alat)
               a(1) = (  1.0000  0.0000  0.0000 )  
               a(2) = ( -0.5000  0.8660  0.0000 )  
               a(3) = (  0.0000  0.0000  8.0812 )  

     reciprocal axes: (cart. coord. in units 2 pi/alat)
               b(1) = (  1.0000  0.5774  0.0000 )  
               b(2) = (  0.0000  1.1547  0.0000 )  
               b(3) = (  0.0000  0.0000  0.1237 )  


     Atoms inside the unit cell: 

     Cartesian axes

     site n.  atom      mass           positions (alat units)
        1     Mo  95.9500   tau(    1) = (   -0.00000    0.57735    4.04060  )
        2     Se  78.9600   tau(    2) = (    0.50000    0.28868    3.53099  )
        3     Se  78.9600   tau(    3) = (    0.50000    0.28868    4.55022  )

     Computing dynamical matrix for 
                    q = (   0.0000000   0.0000000   0.0000000 )
 
     13 Sym.Ops. (with q -> -q+G )


     G cutoff =  393.8715  (   9544 G-vectors)     FFT grid: ( 40, 40,324)
     number of k points=    14

     PseudoPot. # 1 for Mo read from file:
     /scratch1/fanchem/MoSe2/pp/Mo.pbesol-spn-kjpaw_psl.1.0.0.UPF
     MD5 check sum: 2f69e612011640a3284f00f973390535
     Pseudo is Projector augmented-wave + core cor, Zval = 14.0
     Generated using "atomic" code by A. Dal Corso v.6.3
     Shape of augmentation charge: PSQ
     Using radial grid of 1229 points,  6 beta functions with: 
                l(1) =   0
                l(2) =   0
                l(3) =   1
                l(4) =   1
                l(5) =   2
                l(6) =   2
     Q(r) pseudized with 0 coefficients 


     PseudoPot. # 2 for Se read from file:
     /scratch1/fanchem/MoSe2/pp/Se.pbesol-dn-kjpaw_psl.1.0.0.UPF
     MD5 check sum: 96421e4d850e5e17b279567c6a17bf72
     Pseudo is Projector augmented-wave + core cor, Zval = 16.0
     Generated using "atomic" code by A. Dal Corso v.6.3
     Shape of augmentation charge: PSQ
     Using radial grid of 1211 points,  6 beta functions with: 
                l(1) =   0
                l(2) =   0
                l(3) =   1
                l(4) =   1
                l(5) =   2
                l(6) =   2
     Q(r) pseudized with 0 coefficients 


     Mode symmetry, D_3h (-62m) point group:


     Electric field:
     Dielectric constant
     Born effective charges in two ways 


     Atomic displacements:
     There are    6 irreducible representations

     Representation     1      1 modes -  To be done

     Representation     2      2 modes -  To be done

     Representation     3      2 modes -  To be done

     Representation     4      1 modes -  To be done

     Representation     5      1 modes -  To be done

     Representation     6      2 modes -  To be done



     Alpha used in Ewald sum =   2.8000

     negative rho (up, down):  1.202E-04 0.000E+00
     PHONON       :      5.39s CPU      6.31s WALL


     Electric Fields Calculation

      iter #   1 total cpu time :    25.3 secs   av.it.:   9.0
      thresh= 1.000E-02 alpha_mix =  0.700 |ddv_scf|^2 =  6.006E-04

      iter #   2 total cpu time :    32.3 secs   av.it.:  11.6
      thresh= 2.451E-03 alpha_mix =  0.700 |ddv_scf|^2 =  1.995E-02

      iter #   3 total cpu time :    36.7 secs   av.it.:   5.2
      thresh= 1.000E-02 alpha_mix =  0.700 |ddv_scf|^2 =  2.055E-05

      iter #   4 total cpu time :    43.3 secs   av.it.:  11.0
      thresh= 4.533E-04 alpha_mix =  0.700 |ddv_scf|^2 =  3.017E-06

      iter #   5 total cpu time :    49.5 secs   av.it.:   9.8
      thresh= 1.737E-04 alpha_mix =  0.700 |ddv_scf|^2 =  3.935E-10

      iter #   6 total cpu time :    57.8 secs   av.it.:  15.1
      thresh= 1.984E-06 alpha_mix =  0.700 |ddv_scf|^2 =  1.261E-11

      iter #   7 total cpu time :    66.6 secs   av.it.:  16.0
      thresh= 3.551E-07 alpha_mix =  0.700 |ddv_scf|^2 =  3.244E-11

      iter #   8 total cpu time :    74.4 secs   av.it.:  13.0
      thresh= 5.695E-07 alpha_mix =  0.700 |ddv_scf|^2 =  4.242E-13

      iter #   9 total cpu time :    82.1 secs   av.it.:  13.8
      thresh= 6.513E-08 alpha_mix =  0.700 |ddv_scf|^2 =  1.373E-15

      iter #  10 total cpu time :    90.5 secs   av.it.:  15.2
      thresh= 3.705E-09 alpha_mix =  0.700 |ddv_scf|^2 =  1.750E-16

      iter #  11 total cpu time :    98.9 secs   av.it.:  14.7
      thresh= 1.323E-09 alpha_mix =  0.700 |ddv_scf|^2 =  1.480E-17

      iter #  12 total cpu time :   107.0 secs   av.it.:  14.5
      thresh= 3.848E-10 alpha_mix =  0.700 |ddv_scf|^2 =  1.023E-18

      iter #  13 total cpu time :   115.5 secs   av.it.:  14.5
      thresh= 1.011E-10 alpha_mix =  0.700 |ddv_scf|^2 =  4.543E-21

      iter #  14 total cpu time :   124.3 secs   av.it.:  16.4
      thresh= 6.740E-12 alpha_mix =  0.700 |ddv_scf|^2 =  6.603E-22

      iter #  15 total cpu time :   132.1 secs   av.it.:  13.9
      thresh= 2.570E-12 alpha_mix =  0.700 |ddv_scf|^2 =  1.181E-22

      iter #  16 total cpu time :   139.6 secs   av.it.:  13.2
      thresh= 1.087E-12 alpha_mix =  0.700 |ddv_scf|^2 =  1.240E-24

     End of electric fields calculation

          Dielectric constant in cartesian axis 

          (       4.717663936      -0.000000000       0.000000000 )
          (      -0.000000000       4.717663936       0.000000000 )
          (       0.000000000       0.000000000       1.267828166 )

          Effective charges (d Force / dE) in cartesian axis

           atom      1   Mo 
      Ex  (       -1.87107       -0.00000       -0.00000 )
      Ey  (       -0.00000       -1.87107       -0.00000 )
      Ez  (        0.00000        0.00000       -0.13878 )
           atom      2   Se 
      Ex  (        0.93466        0.00000        0.00000 )
      Ey  (        0.00000        0.93466       -0.00000 )
      Ez  (        0.00000       -0.00000        0.06686 )
           atom      3   Se 
      Ex  (        0.93466       -0.00000       -0.00000 )
      Ey  (        0.00000        0.93466       -0.00000 )
      Ez  (        0.00000        0.00000        0.06686 )


     Representation #   1 mode #   1

     Self-consistent Calculation

      iter #   1 total cpu time :   150.6 secs   av.it.:  10.4
      thresh= 1.000E-02 alpha_mix =  0.700 |ddv_scf|^2 =  9.793E-05

      iter #   2 total cpu time :   153.7 secs   av.it.:  15.8
      thresh= 9.896E-04 alpha_mix =  0.700 |ddv_scf|^2 =  1.267E-03

      iter #   3 total cpu time :   156.6 secs   av.it.:  13.4
      thresh= 3.559E-03 alpha_mix =  0.700 |ddv_scf|^2 =  1.553E-05

      iter #   4 total cpu time :   159.6 secs   av.it.:  14.2
      thresh= 3.941E-04 alpha_mix =  0.700 |ddv_scf|^2 =  1.431E-06

      iter #   5 total cpu time :   162.5 secs   av.it.:  14.2
      thresh= 1.196E-04 alpha_mix =  0.700 |ddv_scf|^2 =  1.382E-09

      iter #   6 total cpu time :   165.6 secs   av.it.:  16.1
      thresh= 3.717E-06 alpha_mix =  0.700 |ddv_scf|^2 =  2.271E-10

      iter #   7 total cpu time :   168.7 secs   av.it.:  15.2
      thresh= 1.507E-06 alpha_mix =  0.700 |ddv_scf|^2 =  2.287E-11

      iter #   8 total cpu time :   171.7 secs   av.it.:  15.0
      thresh= 4.782E-07 alpha_mix =  0.700 |ddv_scf|^2 =  1.579E-12

      iter #   9 total cpu time :   174.8 secs   av.it.:  15.6
      thresh= 1.257E-07 alpha_mix =  0.700 |ddv_scf|^2 =  8.949E-14

      iter #  10 total cpu time :   177.9 secs   av.it.:  15.4
      thresh= 2.992E-08 alpha_mix =  0.700 |ddv_scf|^2 =  1.769E-14

      iter #  11 total cpu time :   180.9 secs   av.it.:  14.9
      thresh= 1.330E-08 alpha_mix =  0.700 |ddv_scf|^2 =  8.790E-18

      iter #  12 total cpu time :   184.2 secs   av.it.:  17.4
      thresh= 2.965E-10 alpha_mix =  0.700 |ddv_scf|^2 =  1.132E-17

      iter #  13 total cpu time :   187.2 secs   av.it.:  15.1
      thresh= 3.365E-10 alpha_mix =  0.700 |ddv_scf|^2 =  7.625E-20

      iter #  14 total cpu time :   190.3 secs   av.it.:  16.4
      thresh= 2.761E-11 alpha_mix =  0.700 |ddv_scf|^2 =  3.855E-20

      iter #  15 total cpu time :   193.2 secs   av.it.:  14.9
      thresh= 1.963E-11 alpha_mix =  0.700 |ddv_scf|^2 =  1.567E-21

      iter #  16 total cpu time :   196.1 secs   av.it.:  14.4
      thresh= 3.958E-12 alpha_mix =  0.700 |ddv_scf|^2 =  6.826E-23

     End of self-consistent calculation

     Convergence has been achieved 


     Representation #   2 modes #   2   3

     Self-consistent Calculation

      iter #   1 total cpu time :   201.2 secs   av.it.:   9.8
      thresh= 1.000E-02 alpha_mix =  0.700 |ddv_scf|^2 =  2.570E-07

      iter #   2 total cpu time :   207.7 secs   av.it.:  18.0
      thresh= 5.070E-05 alpha_mix =  0.700 |ddv_scf|^2 =  1.562E-08

      iter #   3 total cpu time :   214.7 secs   av.it.:  18.1
      thresh= 1.250E-05 alpha_mix =  0.700 |ddv_scf|^2 =  3.714E-10

      iter #   4 total cpu time :   221.3 secs   av.it.:  18.6
      thresh= 1.927E-06 alpha_mix =  0.700 |ddv_scf|^2 =  1.999E-11

      iter #   5 total cpu time :   227.8 secs   av.it.:  18.4
      thresh= 4.471E-07 alpha_mix =  0.700 |ddv_scf|^2 =  3.287E-13

      iter #   6 total cpu time :   234.4 secs   av.it.:  17.9
      thresh= 5.733E-08 alpha_mix =  0.700 |ddv_scf|^2 =  1.529E-14

      iter #   7 total cpu time :   240.8 secs   av.it.:  18.0
      thresh= 1.237E-08 alpha_mix =  0.700 |ddv_scf|^2 =  3.473E-16

      iter #   8 total cpu time :   247.4 secs   av.it.:  18.4
      thresh= 1.864E-09 alpha_mix =  0.700 |ddv_scf|^2 =  1.308E-17

      iter #   9 total cpu time :   253.7 secs   av.it.:  17.7
      thresh= 3.617E-10 alpha_mix =  0.700 |ddv_scf|^2 =  5.650E-19

      iter #  10 total cpu time :   260.1 secs   av.it.:  18.2
      thresh= 7.517E-11 alpha_mix =  0.700 |ddv_scf|^2 =  1.106E-20

      iter #  11 total cpu time :   266.8 secs   av.it.:  18.7
      thresh= 1.052E-11 alpha_mix =  0.700 |ddv_scf|^2 =  6.130E-22

      iter #  12 total cpu time :   273.3 secs   av.it.:  18.6
      thresh= 2.476E-12 alpha_mix =  0.700 |ddv_scf|^2 =  3.431E-23

     End of self-consistent calculation

     Convergence has been achieved 


     Representation #   3 modes #   4   5

     Self-consistent Calculation

      iter #   1 total cpu time :   278.9 secs   av.it.:   8.2
      thresh= 1.000E-02 alpha_mix =  0.700 |ddv_scf|^2 =  8.263E-08

      iter #   2 total cpu time :   285.2 secs   av.it.:  17.0
      thresh= 2.875E-05 alpha_mix =  0.700 |ddv_scf|^2 =  8.572E-09

      iter #   3 total cpu time :   291.4 secs   av.it.:  17.4
      thresh= 9.258E-06 alpha_mix =  0.700 |ddv_scf|^2 =  2.007E-10

      iter #   4 total cpu time :   297.6 secs   av.it.:  16.9
      thresh= 1.417E-06 alpha_mix =  0.700 |ddv_scf|^2 =  1.511E-12

      iter #   5 total cpu time :   304.2 secs   av.it.:  18.1
      thresh= 1.229E-07 alpha_mix =  0.700 |ddv_scf|^2 =  3.469E-14

      iter #   6 total cpu time :   310.5 secs   av.it.:  17.7
      thresh= 1.862E-08 alpha_mix =  0.700 |ddv_scf|^2 =  1.465E-16

      iter #   7 total cpu time :   316.9 secs   av.it.:  17.8
      thresh= 1.210E-09 alpha_mix =  0.700 |ddv_scf|^2 =  7.194E-18

      iter #   8 total cpu time :   323.4 secs   av.it.:  18.0
      thresh= 2.682E-10 alpha_mix =  0.700 |ddv_scf|^2 =  7.880E-20

      iter #   9 total cpu time :   329.8 secs   av.it.:  17.8
      thresh= 2.807E-11 alpha_mix =  0.700 |ddv_scf|^2 =  4.314E-21

      iter #  10 total cpu time :   336.1 secs   av.it.:  17.3
      thresh= 6.568E-12 alpha_mix =  0.700 |ddv_scf|^2 =  1.892E-22

      iter #  11 total cpu time :   342.4 secs   av.it.:  17.8
      thresh= 1.375E-12 alpha_mix =  0.700 |ddv_scf|^2 =  6.981E-24

     End of self-consistent calculation

     Convergence has been achieved 


     Representation #   4 mode #   6

     Self-consistent Calculation

      iter #   1 total cpu time :   346.0 secs   av.it.:   9.3
      thresh= 1.000E-02 alpha_mix =  0.700 |ddv_scf|^2 =  4.394E-04

      iter #   2 total cpu time :   348.9 secs   av.it.:  14.0
      thresh= 2.096E-03 alpha_mix =  0.700 |ddv_scf|^2 =  1.692E-02

      iter #   3 total cpu time :   351.9 secs   av.it.:  11.9
      thresh= 1.000E-02 alpha_mix =  0.700 |ddv_scf|^2 =  1.050E-05

      iter #   4 total cpu time :   355.0 secs   av.it.:  13.6
      thresh= 3.240E-04 alpha_mix =  0.700 |ddv_scf|^2 =  4.595E-06

      iter #   5 total cpu time :   357.8 secs   av.it.:  12.4
      thresh= 2.144E-04 alpha_mix =  0.700 |ddv_scf|^2 =  1.795E-08

      iter #   6 total cpu time :   360.6 secs   av.it.:  14.0
      thresh= 1.340E-05 alpha_mix =  0.700 |ddv_scf|^2 =  1.412E-09

      iter #   7 total cpu time :   363.5 secs   av.it.:  14.2
      thresh= 3.758E-06 alpha_mix =  0.700 |ddv_scf|^2 =  3.547E-11

      iter #   8 total cpu time :   366.3 secs   av.it.:  13.8
      thresh= 5.956E-07 alpha_mix =  0.700 |ddv_scf|^2 =  6.872E-14

      iter #   9 total cpu time :   369.6 secs   av.it.:  14.7
      thresh= 2.621E-08 alpha_mix =  0.700 |ddv_scf|^2 =  2.513E-14

      iter #  10 total cpu time :   372.4 secs   av.it.:  13.3
      thresh= 1.585E-08 alpha_mix =  0.700 |ddv_scf|^2 =  7.506E-17

      iter #  11 total cpu time :   375.4 secs   av.it.:  15.2
      thresh= 8.664E-10 alpha_mix =  0.700 |ddv_scf|^2 =  9.256E-18

      iter #  12 total cpu time :   378.2 secs   av.it.:  13.8
      thresh= 3.042E-10 alpha_mix =  0.700 |ddv_scf|^2 =  9.376E-21

      iter #  13 total cpu time :   381.3 secs   av.it.:  15.9
      thresh= 9.683E-12 alpha_mix =  0.700 |ddv_scf|^2 =  9.905E-21

      iter #  14 total cpu time :   384.1 secs   av.it.:  13.6
      thresh= 9.952E-12 alpha_mix =  0.700 |ddv_scf|^2 =  2.470E-23

     End of self-consistent calculation

     Convergence has been achieved 


     Representation #   5 mode #   7

     Self-consistent Calculation

      iter #   1 total cpu time :   387.4 secs   av.it.:  10.4
      thresh= 1.000E-02 alpha_mix =  0.700 |ddv_scf|^2 =  4.218E-04

      iter #   2 total cpu time :   390.3 secs   av.it.:  14.0
      thresh= 2.054E-03 alpha_mix =  0.700 |ddv_scf|^2 =  1.262E-02

      iter #   3 total cpu time :   392.8 secs   av.it.:  11.7
      thresh= 1.000E-02 alpha_mix =  0.700 |ddv_scf|^2 =  5.575E-05

      iter #   4 total cpu time :   395.6 secs   av.it.:  13.2
      thresh= 7.466E-04 alpha_mix =  0.700 |ddv_scf|^2 =  9.599E-06

      iter #   5 total cpu time :   398.2 secs   av.it.:  12.1
      thresh= 3.098E-04 alpha_mix =  0.700 |ddv_scf|^2 =  2.655E-09

      iter #   6 total cpu time :   401.2 secs   av.it.:  14.8
      thresh= 5.153E-06 alpha_mix =  0.700 |ddv_scf|^2 =  2.352E-09

      iter #   7 total cpu time :   403.9 secs   av.it.:  13.3
      thresh= 4.850E-06 alpha_mix =  0.700 |ddv_scf|^2 =  1.100E-11

      iter #   8 total cpu time :   407.0 secs   av.it.:  15.4
      thresh= 3.317E-07 alpha_mix =  0.700 |ddv_scf|^2 =  1.928E-11

      iter #   9 total cpu time :   409.7 secs   av.it.:  13.6
      thresh= 4.391E-07 alpha_mix =  0.700 |ddv_scf|^2 =  5.350E-13

      iter #  10 total cpu time :   412.6 secs   av.it.:  14.1
      thresh= 7.315E-08 alpha_mix =  0.700 |ddv_scf|^2 =  8.160E-16

      iter #  11 total cpu time :   415.7 secs   av.it.:  16.9
      thresh= 2.857E-09 alpha_mix =  0.700 |ddv_scf|^2 =  3.470E-17

      iter #  12 total cpu time :   418.7 secs   av.it.:  15.2
      thresh= 5.890E-10 alpha_mix =  0.700 |ddv_scf|^2 =  2.084E-17

      iter #  13 total cpu time :   421.5 secs   av.it.:  13.8
      thresh= 4.566E-10 alpha_mix =  0.700 |ddv_scf|^2 =  2.480E-18

      iter #  14 total cpu time :   424.3 secs   av.it.:  13.6
      thresh= 1.575E-10 alpha_mix =  0.700 |ddv_scf|^2 =  1.778E-19

      iter #  15 total cpu time :   426.9 secs   av.it.:  12.3
      thresh= 4.217E-11 alpha_mix =  0.700 |ddv_scf|^2 =  3.315E-20

      iter #  16 total cpu time :   429.6 secs   av.it.:  13.9
      thresh= 1.821E-11 alpha_mix =  0.700 |ddv_scf|^2 =  5.121E-22

      iter #  17 total cpu time :   432.5 secs   av.it.:  14.5
      thresh= 2.263E-12 alpha_mix =  0.700 |ddv_scf|^2 =  7.228E-24

     End of self-consistent calculation

     Convergence has been achieved 


     Representation #   6 modes #   8   9

     Self-consistent Calculation

      iter #   1 total cpu time :   437.6 secs   av.it.:   9.8
      thresh= 1.000E-02 alpha_mix =  0.700 |ddv_scf|^2 =  2.457E-07

      iter #   2 total cpu time :   443.8 secs   av.it.:  17.8
      thresh= 4.957E-05 alpha_mix =  0.700 |ddv_scf|^2 =  1.145E-08

      iter #   3 total cpu time :   450.3 secs   av.it.:  18.0
      thresh= 1.070E-05 alpha_mix =  0.700 |ddv_scf|^2 =  2.780E-10

      iter #   4 total cpu time :   456.7 secs   av.it.:  18.1
      thresh= 1.667E-06 alpha_mix =  0.700 |ddv_scf|^2 =  1.512E-12

      iter #   5 total cpu time :   462.9 secs   av.it.:  17.6
      thresh= 1.230E-07 alpha_mix =  0.700 |ddv_scf|^2 =  7.656E-14

      iter #   6 total cpu time :   469.3 secs   av.it.:  17.7
      thresh= 2.767E-08 alpha_mix =  0.700 |ddv_scf|^2 =  5.442E-16

      iter #   7 total cpu time :   475.9 secs   av.it.:  17.7
      thresh= 2.333E-09 alpha_mix =  0.700 |ddv_scf|^2 =  3.647E-17

      iter #   8 total cpu time :   482.1 secs   av.it.:  17.4
      thresh= 6.039E-10 alpha_mix =  0.700 |ddv_scf|^2 =  2.290E-19

      iter #   9 total cpu time :   488.5 secs   av.it.:  18.0
      thresh= 4.785E-11 alpha_mix =  0.700 |ddv_scf|^2 =  5.633E-21

      iter #  10 total cpu time :   494.8 secs   av.it.:  17.9
      thresh= 7.505E-12 alpha_mix =  0.700 |ddv_scf|^2 =  8.783E-23

     End of self-consistent calculation

     Convergence has been achieved 
 
     Number of q in the star =    1
     List of q in the star:
          1   0.000000000   0.000000000   0.000000000

          Dielectric constant in cartesian axis 

          (       4.717663936      -0.000000000       0.000000000 )
          (      -0.000000000       4.717663936       0.000000000 )
          (       0.000000000       0.000000000       1.267828166 )

          Effective charges (d Force / dE) in cartesian axis

           atom      1   Mo 
      Ex  (       -1.87107       -0.00000       -0.00000 )
      Ey  (       -0.00000       -1.87107       -0.00000 )
      Ez  (        0.00000        0.00000       -0.13878 )
           atom      2   Se 
      Ex  (        0.93466        0.00000        0.00000 )
      Ey  (        0.00000        0.93466       -0.00000 )
      Ez  (        0.00000       -0.00000        0.06686 )
           atom      3   Se 
      Ex  (        0.93466       -0.00000       -0.00000 )
      Ey  (        0.00000        0.93466       -0.00000 )
      Ez  (        0.00000        0.00000        0.06686 )

          Effective charges (d P / du) in cartesian axis 

           atom      1   Mo 
      Px  (       -1.87105        0.00000        0.00000 )
      Py  (        0.00000       -1.87105        0.00000 )
      Pz  (        0.00000        0.00000       -0.13877 )
           atom      2   Se 
      Px  (        0.93464       -0.00000       -0.00000 )
      Py  (       -0.00000        0.93464       -0.00000 )
      Pz  (        0.00000        0.00000        0.06685 )
           atom      3   Se 
      Px  (        0.93464       -0.00000        0.00000 )
      Py  (       -0.00000        0.93464        0.00000 )
      Pz  (       -0.00000       -0.00000        0.06685 )

     Diagonalizing the dynamical matrix

     q = (    0.000000000   0.000000000   0.000000000 ) 

 **************************************************************************
     freq (    1) =      -0.108867 [THz] =      -3.631397 [cm-1]
     freq (    2) =      -0.056172 [THz] =      -1.873708 [cm-1]
     freq (    3) =      -0.056172 [THz] =      -1.873708 [cm-1]
     freq (    4) =       5.041717 [THz] =     168.173591 [cm-1]
     freq (    5) =       5.041717 [THz] =     168.173591 [cm-1]
     freq (    6) =       7.249473 [THz] =     241.816384 [cm-1]
     freq (    7) =       8.627718 [THz] =     287.789682 [cm-1]
     freq (    8) =       8.627718 [THz] =     287.789682 [cm-1]
     freq (    9) =      10.660879 [THz] =     355.608647 [cm-1]
 **************************************************************************

     Mode symmetry, D_3h (-62m) point group:

     freq (   1-   1) =         -3.6  [cm-1]   --> A''2            I  
     freq (   2-   3) =         -1.9  [cm-1]   --> E'              I+R
     freq (   4-   5) =        168.2  [cm-1]   --> E''             R  
     freq (   6-   6) =        241.8  [cm-1]   --> A'_1            R  
     freq (   7-   8) =        287.8  [cm-1]   --> E'              I+R
     freq (   9-   9) =        355.6  [cm-1]   --> A''2            I  

     Calculation of q =    0.0000000   0.1443376   0.0000000

     Subspace diagonalization in iterative solution of the eigenvalue problem:
     one sub-group per band group will be used
     scalapack distributed-memory algorithm (size of sub-group:  4*  4 procs)

 
     Parallelization info
     --------------------
     sticks:   dense  smooth     PW     G-vecs:    dense   smooth      PW
     Min          44      44     13                 9532     9532    1477
     Max          45      45     14                 9567     9567    1499
     Sum        1069    1069    313               229233   229233   35753
 

     Title: 
     phonon                                                                     


     bravais-lattice index     =            4
     lattice parameter (alat)  =       6.1734  a.u.
     unit-cell volume          =    1646.5987 (a.u.)^3
     number of atoms/cell      =            3
     number of atomic types    =            2
     number of electrons       =        46.00
     number of Kohn-Sham states=           23
     kinetic-energy cutoff     =     102.0000  Ry
     charge density cutoff     =     408.0000  Ry
     Exchange-correlation= PBESOL
                           (   1   4  10   8   0   0   0)

     celldm(1)=   6.173437  celldm(2)=   0.000000  celldm(3)=   8.081203
     celldm(4)=   0.000000  celldm(5)=   0.000000  celldm(6)=   0.000000

     crystal axes: (cart. coord. in units of alat)
               a(1) = (   1.000000   0.000000   0.000000 )  
               a(2) = (  -0.500000   0.866025   0.000000 )  
               a(3) = (   0.000000   0.000000   8.081203 )  

     reciprocal axes: (cart. coord. in units 2 pi/alat)
               b(1) = (  1.000000  0.577350  0.000000 )  
               b(2) = (  0.000000  1.154701  0.000000 )  
               b(3) = (  0.000000  0.000000  0.123744 )  


     PseudoPot. # 1 for Mo read from file:
     /scratch1/fanchem/MoSe2/pp/Mo.pbesol-spn-kjpaw_psl.1.0.0.UPF
     MD5 check sum: 2f69e612011640a3284f00f973390535
     Pseudo is Projector augmented-wave + core cor, Zval = 14.0
     Generated using "atomic" code by A. Dal Corso v.6.3
     Shape of augmentation charge: PSQ
     Using radial grid of 1229 points,  6 beta functions with: 
                l(1) =   0
                l(2) =   0
                l(3) =   1
                l(4) =   1
                l(5) =   2
                l(6) =   2
     Q(r) pseudized with 0 coefficients 


     PseudoPot. # 2 for Se read from file:
     /scratch1/fanchem/MoSe2/pp/Se.pbesol-dn-kjpaw_psl.1.0.0.UPF
     MD5 check sum: 96421e4d850e5e17b279567c6a17bf72
     Pseudo is Projector augmented-wave + core cor, Zval = 16.0
     Generated using "atomic" code by A. Dal Corso v.6.3
     Shape of augmentation charge: PSQ
     Using radial grid of 1211 points,  6 beta functions with: 
                l(1) =   0
                l(2) =   0
                l(3) =   1
                l(4) =   1
                l(5) =   2
                l(6) =   2
     Q(r) pseudized with 0 coefficients 


     atomic species   valence    mass     pseudopotential
        Mo            14.00    95.95000     Mo( 1.00)
        Se            16.00    78.96000     Se( 1.00)

     12 Sym. Ops. (no inversion) found



   Cartesian axes

     site n.     atom                  positions (alat units)
         1           Mo  tau(   1) = (  -0.0000000   0.5773503   4.0406015  )
         2           Se  tau(   2) = (   0.5000000   0.2886751   3.5309875  )
         3           Se  tau(   3) = (   0.5000000   0.2886751   4.5502155  )

     number of k points=   110

     Number of k-points >= 100: set verbosity='high' to print them.

     Dense  grid:   229233 G-vectors     FFT dimensions: (  40,  40, 324)

     Estimated max dynamical RAM per process >      21.65 MB

     Estimated total dynamical RAM >       1.01 GB

     The potential is recalculated from file :
     ./_ph0/mose2.q_2/mose2.save/charge-density


     negative rho (up, down):  1.202E-04 0.000E+00
     Starting wfcs are   28 atomic wfcs
     Checking if some PAW data can be deallocated... 

     Band Structure Calculation
     Davidson diagonalization with overlap

     ethr =  2.17E-11,  avg # of iterations = 15.1

     total cpu time spent up to now is       31.5 secs

     End of band structure calculation

     Number of k-points >= 100: set verbosity='high' to print the bands.

     highest occupied level (ev):    -1.2496

     Writing output data file ./_ph0/mose2.q_2/mose2.save/

     phonon                                                                     

     bravais-lattice index     =            4
     lattice parameter (alat)  =       6.1734  a.u.
     unit-cell volume          =    1646.5987 (a.u.)^3
     number of atoms/cell      =            3
     number of atomic types    =            2
     kinetic-energy cut-off    =     102.0000  Ry
     charge density cut-off    =     408.0000  Ry
     convergence threshold     =      1.0E-22
     beta                      =       0.7000
     number of iterations used =            4
     Exchange-correlation= PBESOL
                           (   1   4  10   8   0   0   0)


     celldm(1)=    6.17344  celldm(2)=    0.00000  celldm(3)=    8.08120
     celldm(4)=    0.00000  celldm(5)=    0.00000  celldm(6)=    0.00000

     crystal axes: (cart. coord. in units of alat)
               a(1) = (  1.0000  0.0000  0.0000 )  
               a(2) = ( -0.5000  0.8660  0.0000 )  
               a(3) = (  0.0000  0.0000  8.0812 )  

     reciprocal axes: (cart. coord. in units 2 pi/alat)
               b(1) = (  1.0000  0.5774  0.0000 )  
               b(2) = (  0.0000  1.1547  0.0000 )  
               b(3) = (  0.0000  0.0000  0.1237 )  


     Atoms inside the unit cell: 

     Cartesian axes

     site n.  atom      mass           positions (alat units)
        1     Mo  95.9500   tau(    1) = (   -0.00000    0.57735    4.04060  )
        2     Se  78.9600   tau(    2) = (    0.50000    0.28868    3.53099  )
        3     Se  78.9600   tau(    3) = (    0.50000    0.28868    4.55022  )

     Computing dynamical matrix for 
                    q = (   0.0000000   0.1443376   0.0000000 )
 
      4 Sym.Ops. (no q -> -q+G )


     G cutoff =  393.8715  (   9544 G-vectors)     FFT grid: ( 40, 40,324)
     number of k points=   110

     PseudoPot. # 1 for Mo read from file:
     /scratch1/fanchem/MoSe2/pp/Mo.pbesol-spn-kjpaw_psl.1.0.0.UPF
     MD5 check sum: 2f69e612011640a3284f00f973390535
     Pseudo is Projector augmented-wave + core cor, Zval = 14.0
     Generated using "atomic" code by A. Dal Corso v.6.3
     Shape of augmentation charge: PSQ
     Using radial grid of 1229 points,  6 beta functions with: 
                l(1) =   0
                l(2) =   0
                l(3) =   1
                l(4) =   1
                l(5) =   2
                l(6) =   2
     Q(r) pseudized with 0 coefficients 


     PseudoPot. # 2 for Se read from file:
     /scratch1/fanchem/MoSe2/pp/Se.pbesol-dn-kjpaw_psl.1.0.0.UPF
     MD5 check sum: 96421e4d850e5e17b279567c6a17bf72
     Pseudo is Projector augmented-wave + core cor, Zval = 16.0
     Generated using "atomic" code by A. Dal Corso v.6.3
     Shape of augmentation charge: PSQ
     Using radial grid of 1211 points,  6 beta functions with: 
                l(1) =   0
                l(2) =   0
                l(3) =   1
                l(4) =   1
                l(5) =   2
                l(6) =   2
     Q(r) pseudized with 0 coefficients 


     Mode symmetry, C_2v (mm2)  point group:


     Atomic displacements:
     There are    9 irreducible representations

     Representation     1      1 modes -  To be done

     Representation     2      1 modes -  To be done

     Representation     3      1 modes -  To be done

     Representation     4      1 modes -  To be done

     Representation     5      1 modes -  To be done

     Representation     6      1 modes -  To be done

     Representation     7      1 modes -  To be done

     Representation     8      1 modes -  To be done

     Representation     9      1 modes -  To be done



     Alpha used in Ewald sum =   2.8000

     negative rho (up, down):  1.202E-04 0.000E+00
     PHONON       :   8m26.33s CPU   8m55.67s WALL



     Representation #   1 mode #   1

     Self-consistent Calculation

      iter #   1 total cpu time :   543.8 secs   av.it.:  11.3
      thresh= 1.000E-02 alpha_mix =  0.700 |ddv_scf|^2 =  4.084E-04

      iter #   2 total cpu time :   558.1 secs   av.it.:  15.6
      thresh= 2.021E-03 alpha_mix =  0.700 |ddv_scf|^2 =  2.034E-02

      iter #   3 total cpu time :   568.0 secs   av.it.:  13.2
      thresh= 1.000E-02 alpha_mix =  0.700 |ddv_scf|^2 =  2.156E-05

      iter #   4 total cpu time :   578.0 secs   av.it.:  14.7
      thresh= 4.643E-04 alpha_mix =  0.700 |ddv_scf|^2 =  4.423E-06

      iter #   5 total cpu time :   588.3 secs   av.it.:  15.3
      thresh= 2.103E-04 alpha_mix =  0.700 |ddv_scf|^2 =  3.633E-07

      iter #   6 total cpu time :   599.0 secs   av.it.:  15.6
      thresh= 6.027E-05 alpha_mix =  0.700 |ddv_scf|^2 =  2.923E-09

      iter #   7 total cpu time :   609.8 secs   av.it.:  16.5
      thresh= 5.407E-06 alpha_mix =  0.700 |ddv_scf|^2 =  8.517E-10

      iter #   8 total cpu time :   620.5 secs   av.it.:  16.1
      thresh= 2.918E-06 alpha_mix =  0.700 |ddv_scf|^2 =  1.058E-08

      iter #   9 total cpu time :   630.6 secs   av.it.:  13.7
      thresh= 1.029E-05 alpha_mix =  0.700 |ddv_scf|^2 =  4.162E-11

      iter #  10 total cpu time :   641.3 secs   av.it.:  16.0
      thresh= 6.451E-07 alpha_mix =  0.700 |ddv_scf|^2 =  2.803E-11

      iter #  11 total cpu time :   652.1 secs   av.it.:  15.8
      thresh= 5.294E-07 alpha_mix =  0.700 |ddv_scf|^2 =  3.648E-11

      iter #  12 total cpu time :   661.9 secs   av.it.:  14.3
      thresh= 6.040E-07 alpha_mix =  0.700 |ddv_scf|^2 =  4.301E-12

      iter #  13 total cpu time :   671.9 secs   av.it.:  14.7
      thresh= 2.074E-07 alpha_mix =  0.700 |ddv_scf|^2 =  2.540E-13

      iter #  14 total cpu time :   682.2 secs   av.it.:  15.2
      thresh= 5.040E-08 alpha_mix =  0.700 |ddv_scf|^2 =  8.321E-16

      iter #  15 total cpu time :   693.6 secs   av.it.:  17.6
      thresh= 2.885E-09 alpha_mix =  0.700 |ddv_scf|^2 =  2.601E-15

      iter #  16 total cpu time :   703.9 secs   av.it.:  15.4
      thresh= 5.100E-09 alpha_mix =  0.700 |ddv_scf|^2 =  1.961E-16

      iter #  17 total cpu time :   714.1 secs   av.it.:  15.1
      thresh= 1.400E-09 alpha_mix =  0.700 |ddv_scf|^2 =  1.615E-17

      iter #  18 total cpu time :   724.5 secs   av.it.:  14.8
      thresh= 4.018E-10 alpha_mix =  0.700 |ddv_scf|^2 =  1.147E-17

      iter #  19 total cpu time :   733.6 secs   av.it.:  13.1
      thresh= 3.387E-10 alpha_mix =  0.700 |ddv_scf|^2 =  3.154E-18

      iter #  20 total cpu time :   743.8 secs   av.it.:  14.9
      thresh= 1.776E-10 alpha_mix =  0.700 |ddv_scf|^2 =  6.644E-19

      iter #  21 total cpu time :   754.3 secs   av.it.:  15.7
      thresh= 8.151E-11 alpha_mix =  0.700 |ddv_scf|^2 =  1.958E-19

      iter #  22 total cpu time :   764.2 secs   av.it.:  14.6
      thresh= 4.425E-11 alpha_mix =  0.700 |ddv_scf|^2 =  1.823E-20

      iter #  23 total cpu time :   774.9 secs   av.it.:  16.0
      thresh= 1.350E-11 alpha_mix =  0.700 |ddv_scf|^2 =  1.329E-20

      iter #  24 total cpu time :   785.0 secs   av.it.:  14.7
      thresh= 1.153E-11 alpha_mix =  0.700 |ddv_scf|^2 =  1.913E-22

      iter #  25 total cpu time :   795.5 secs   av.it.:  15.7
      thresh= 1.383E-12 alpha_mix =  0.700 |ddv_scf|^2 =  2.266E-22

      iter #  26 total cpu time :   805.9 secs   av.it.:  15.4
      thresh= 1.505E-12 alpha_mix =  0.700 |ddv_scf|^2 =  3.880E-22

      iter #  27 total cpu time :   815.5 secs   av.it.:  13.7
      thresh= 1.970E-12 alpha_mix =  0.700 |ddv_scf|^2 =  1.515E-23

     End of self-consistent calculation

     Convergence has been achieved 


     Representation #   2 mode #   2

     Self-consistent Calculation

      iter #   1 total cpu time :   824.0 secs   av.it.:  11.0
      thresh= 1.000E-02 alpha_mix =  0.700 |ddv_scf|^2 =  1.498E-04

      iter #   2 total cpu time :   834.9 secs   av.it.:  15.8
      thresh= 1.224E-03 alpha_mix =  0.700 |ddv_scf|^2 =  6.181E-03

      iter #   3 total cpu time :   844.3 secs   av.it.:  12.7
      thresh= 7.862E-03 alpha_mix =  0.700 |ddv_scf|^2 =  7.958E-05

      iter #   4 total cpu time :   854.3 secs   av.it.:  13.9
      thresh= 8.921E-04 alpha_mix =  0.700 |ddv_scf|^2 =  1.868E-06

      iter #   5 total cpu time :   865.6 secs   av.it.:  15.8
      thresh= 1.367E-04 alpha_mix =  0.700 |ddv_scf|^2 =  2.691E-07

      iter #   6 total cpu time :   876.4 secs   av.it.:  15.7
      thresh= 5.187E-05 alpha_mix =  0.700 |ddv_scf|^2 =  2.584E-09

      iter #   7 total cpu time :   887.1 secs   av.it.:  16.1
      thresh= 5.083E-06 alpha_mix =  0.700 |ddv_scf|^2 =  4.610E-10

      iter #   8 total cpu time :   897.9 secs   av.it.:  16.7
      thresh= 2.147E-06 alpha_mix =  0.700 |ddv_scf|^2 =  8.518E-09

      iter #   9 total cpu time :   907.7 secs   av.it.:  13.8
      thresh= 9.230E-06 alpha_mix =  0.700 |ddv_scf|^2 =  3.034E-10

      iter #  10 total cpu time :   918.0 secs   av.it.:  15.4
      thresh= 1.742E-06 alpha_mix =  0.700 |ddv_scf|^2 =  5.240E-11

      iter #  11 total cpu time :   928.3 secs   av.it.:  15.7
      thresh= 7.239E-07 alpha_mix =  0.700 |ddv_scf|^2 =  3.875E-11

      iter #  12 total cpu time :   938.5 secs   av.it.:  15.2
      thresh= 6.225E-07 alpha_mix =  0.700 |ddv_scf|^2 =  5.264E-12

      iter #  13 total cpu time :   949.4 secs   av.it.:  14.7
      thresh= 2.294E-07 alpha_mix =  0.700 |ddv_scf|^2 =  7.266E-14

      iter #  14 total cpu time :   960.0 secs   av.it.:  15.4
      thresh= 2.695E-08 alpha_mix =  0.700 |ddv_scf|^2 =  8.301E-14

      iter #  15 total cpu time :   970.1 secs   av.it.:  14.7
      thresh= 2.881E-08 alpha_mix =  0.700 |ddv_scf|^2 =  1.728E-15

      iter #  16 total cpu time :   980.7 secs   av.it.:  15.7
      thresh= 4.157E-09 alpha_mix =  0.700 |ddv_scf|^2 =  6.658E-15

      iter #  17 total cpu time :   990.2 secs   av.it.:  13.6
      thresh= 8.160E-09 alpha_mix =  0.700 |ddv_scf|^2 =  2.994E-15

      iter #  18 total cpu time :   999.9 secs   av.it.:  14.3
      thresh= 5.472E-09 alpha_mix =  0.700 |ddv_scf|^2 =  3.279E-17

      iter #  19 total cpu time :  1010.9 secs   av.it.:  16.7
      thresh= 5.726E-10 alpha_mix =  0.700 |ddv_scf|^2 =  1.180E-16

      iter #  20 total cpu time :  1020.8 secs   av.it.:  14.6
      thresh= 1.086E-09 alpha_mix =  0.700 |ddv_scf|^2 =  3.335E-17

      iter #  21 total cpu time :  1030.7 secs   av.it.:  14.5
      thresh= 5.775E-10 alpha_mix =  0.700 |ddv_scf|^2 =  1.279E-18

      iter #  22 total cpu time :  1040.9 secs   av.it.:  14.8
      thresh= 1.131E-10 alpha_mix =  0.700 |ddv_scf|^2 =  3.885E-20

      iter #  23 total cpu time :  1052.1 secs   av.it.:  17.1
      thresh= 1.971E-11 alpha_mix =  0.700 |ddv_scf|^2 =  6.812E-19

      iter #  24 total cpu time :  1061.3 secs   av.it.:  13.5
      thresh= 8.254E-11 alpha_mix =  0.700 |ddv_scf|^2 =  8.653E-20

      iter #  25 total cpu time :  1071.6 secs   av.it.:  15.1
      thresh= 2.942E-11 alpha_mix =  0.700 |ddv_scf|^2 =  6.509E-21

      iter #  26 total cpu time :  1081.1 secs   av.it.:  13.1
      thresh= 8.068E-12 alpha_mix =  0.700 |ddv_scf|^2 =  1.600E-21

      iter #  27 total cpu time :  1092.0 secs   av.it.:  16.5
      thresh= 4.000E-12 alpha_mix =  0.700 |ddv_scf|^2 =  1.142E-20

      iter #  28 total cpu time :  1105.1 secs   av.it.:  13.7
      thresh= 1.069E-11 alpha_mix =  0.700 |ddv_scf|^2 =  4.945E-23

     End of self-consistent calculation

     Convergence has been achieved 


     Representation #   3 mode #   3

     Self-consistent Calculation

      iter #   1 total cpu time :  1123.4 secs   av.it.:   9.8
      thresh= 1.000E-02 alpha_mix =  0.700 |ddv_scf|^2 =  1.820E-04

      iter #   2 total cpu time :  1133.8 secs   av.it.:  15.4
      thresh= 1.349E-03 alpha_mix =  0.700 |ddv_scf|^2 =  7.725E-03

      iter #   3 total cpu time :  1142.5 secs   av.it.:  12.6
      thresh= 8.789E-03 alpha_mix =  0.700 |ddv_scf|^2 =  1.438E-05

      iter #   4 total cpu time :  1156.1 secs   av.it.:  14.7
      thresh= 3.792E-04 alpha_mix =  0.700 |ddv_scf|^2 =  1.424E-05

      iter #   5 total cpu time :  1165.9 secs   av.it.:  13.7
      thresh= 3.773E-04 alpha_mix =  0.700 |ddv_scf|^2 =  1.320E-07

      iter #   6 total cpu time :  1176.2 secs   av.it.:  15.6
      thresh= 3.633E-05 alpha_mix =  0.700 |ddv_scf|^2 =  1.191E-08

      iter #   7 total cpu time :  1186.5 secs   av.it.:  14.7
      thresh= 1.091E-05 alpha_mix =  0.700 |ddv_scf|^2 =  1.002E-09

      iter #   8 total cpu time :  1197.2 secs   av.it.:  13.7
      thresh= 3.166E-06 alpha_mix =  0.700 |ddv_scf|^2 =  7.423E-10

      iter #   9 total cpu time :  1207.6 secs   av.it.:  14.9
      thresh= 2.724E-06 alpha_mix =  0.700 |ddv_scf|^2 =  2.367E-11

      iter #  10 total cpu time :  1218.5 secs   av.it.:  16.1
      thresh= 4.865E-07 alpha_mix =  0.700 |ddv_scf|^2 =  1.476E-11

      iter #  11 total cpu time :  1228.5 secs   av.it.:  14.6
      thresh= 3.841E-07 alpha_mix =  0.700 |ddv_scf|^2 =  2.081E-12

      iter #  12 total cpu time :  1238.9 secs   av.it.:  15.5
      thresh= 1.442E-07 alpha_mix =  0.700 |ddv_scf|^2 =  4.222E-13

      iter #  13 total cpu time :  1249.0 secs   av.it.:  14.8
      thresh= 6.498E-08 alpha_mix =  0.700 |ddv_scf|^2 =  2.085E-14

      iter #  14 total cpu time :  1259.6 secs   av.it.:  15.7
      thresh= 1.444E-08 alpha_mix =  0.700 |ddv_scf|^2 =  2.054E-14

      iter #  15 total cpu time :  1269.5 secs   av.it.:  14.7
      thresh= 1.433E-08 alpha_mix =  0.700 |ddv_scf|^2 =  9.203E-16

      iter #  16 total cpu time :  1280.1 secs   av.it.:  16.0
      thresh= 3.034E-09 alpha_mix =  0.700 |ddv_scf|^2 =  1.929E-15

      iter #  17 total cpu time :  1289.8 secs   av.it.:  13.8
      thresh= 4.392E-09 alpha_mix =  0.700 |ddv_scf|^2 =  1.176E-16

      iter #  18 total cpu time :  1300.4 secs   av.it.:  16.0
      thresh= 1.084E-09 alpha_mix =  0.700 |ddv_scf|^2 =  8.565E-17

      iter #  19 total cpu time :  1310.5 secs   av.it.:  15.0
      thresh= 9.255E-10 alpha_mix =  0.700 |ddv_scf|^2 =  9.897E-18

      iter #  20 total cpu time :  1320.6 secs   av.it.:  14.7
      thresh= 3.146E-10 alpha_mix =  0.700 |ddv_scf|^2 =  6.106E-19

      iter #  21 total cpu time :  1331.5 secs   av.it.:  15.8
      thresh= 7.814E-11 alpha_mix =  0.700 |ddv_scf|^2 =  1.779E-18

      iter #  22 total cpu time :  1341.0 secs   av.it.:  13.7
      thresh= 1.334E-10 alpha_mix =  0.700 |ddv_scf|^2 =  1.627E-19

      iter #  23 total cpu time :  1351.6 secs   av.it.:  15.8
      thresh= 4.033E-11 alpha_mix =  0.700 |ddv_scf|^2 =  1.225E-19

      iter #  24 total cpu time :  1361.3 secs   av.it.:  14.6
      thresh= 3.500E-11 alpha_mix =  0.700 |ddv_scf|^2 =  5.985E-21

      iter #  25 total cpu time :  1371.7 secs   av.it.:  15.6
      thresh= 7.736E-12 alpha_mix =  0.700 |ddv_scf|^2 =  1.105E-20

      iter #  26 total cpu time :  1380.9 secs   av.it.:  13.4
      thresh= 1.051E-11 alpha_mix =  0.700 |ddv_scf|^2 =  8.812E-22

      iter #  27 total cpu time :  1390.7 secs   av.it.:  14.7
      thresh= 2.969E-12 alpha_mix =  0.700 |ddv_scf|^2 =  1.751E-22

      iter #  28 total cpu time :  1400.8 secs   av.it.:  14.8
      thresh= 1.323E-12 alpha_mix =  0.700 |ddv_scf|^2 =  4.166E-23

     End of self-consistent calculation

     Convergence has been achieved 


     Representation #   4 mode #   4

     Self-consistent Calculation

      iter #   1 total cpu time :  1408.5 secs   av.it.:   9.9
      thresh= 1.000E-02 alpha_mix =  0.700 |ddv_scf|^2 =  1.016E-06

      iter #   2 total cpu time :  1419.9 secs   av.it.:  17.3
      thresh= 1.008E-04 alpha_mix =  0.700 |ddv_scf|^2 =  5.307E-08

      iter #   3 total cpu time :  1431.2 secs   av.it.:  17.3
      thresh= 2.304E-05 alpha_mix =  0.700 |ddv_scf|^2 =  1.155E-09

      iter #   4 total cpu time :  1442.4 secs   av.it.:  17.4
      thresh= 3.398E-06 alpha_mix =  0.700 |ddv_scf|^2 =  8.048E-12

      iter #   5 total cpu time :  1453.8 secs   av.it.:  17.1
      thresh= 2.837E-07 alpha_mix =  0.700 |ddv_scf|^2 =  3.390E-13

      iter #   6 total cpu time :  1464.9 secs   av.it.:  17.0
      thresh= 5.822E-08 alpha_mix =  0.700 |ddv_scf|^2 =  2.418E-15

      iter #   7 total cpu time :  1475.9 secs   av.it.:  17.0
      thresh= 4.917E-09 alpha_mix =  0.700 |ddv_scf|^2 =  1.558E-16

      iter #   8 total cpu time :  1487.2 secs   av.it.:  17.3
      thresh= 1.248E-09 alpha_mix =  0.700 |ddv_scf|^2 =  1.182E-18

      iter #   9 total cpu time :  1498.4 secs   av.it.:  17.5
      thresh= 1.087E-10 alpha_mix =  0.700 |ddv_scf|^2 =  2.908E-20

      iter #  10 total cpu time :  1509.8 secs   av.it.:  17.5
      thresh= 1.705E-11 alpha_mix =  0.700 |ddv_scf|^2 =  3.373E-22

      iter #  11 total cpu time :  1521.1 secs   av.it.:  17.5
      thresh= 1.837E-12 alpha_mix =  0.700 |ddv_scf|^2 =  1.456E-23

     End of self-consistent calculation

     Convergence has been achieved 


     Representation #   5 mode #   5

     Self-consistent Calculation

      iter #   1 total cpu time :  1528.9 secs   av.it.:  10.0
      thresh= 1.000E-02 alpha_mix =  0.700 |ddv_scf|^2 =  1.072E-06

      iter #   2 total cpu time :  1540.3 secs   av.it.:  17.3
      thresh= 1.035E-04 alpha_mix =  0.700 |ddv_scf|^2 =  7.670E-08

      iter #   3 total cpu time :  1551.8 secs   av.it.:  17.4
      thresh= 2.769E-05 alpha_mix =  0.700 |ddv_scf|^2 =  1.722E-09

      iter #   4 total cpu time :  1563.2 secs   av.it.:  17.6
      thresh= 4.150E-06 alpha_mix =  0.700 |ddv_scf|^2 =  1.157E-10

      iter #   5 total cpu time :  1575.2 secs   av.it.:  17.7
      thresh= 1.076E-06 alpha_mix =  0.700 |ddv_scf|^2 =  1.396E-12

      iter #   6 total cpu time :  1587.0 secs   av.it.:  17.4
      thresh= 1.182E-07 alpha_mix =  0.700 |ddv_scf|^2 =  5.322E-14

      iter #   7 total cpu time :  1598.5 secs   av.it.:  17.5
      thresh= 2.307E-08 alpha_mix =  0.700 |ddv_scf|^2 =  1.164E-15

      iter #   8 total cpu time :  1610.2 secs   av.it.:  17.6
      thresh= 3.412E-09 alpha_mix =  0.700 |ddv_scf|^2 =  5.277E-17

      iter #   9 total cpu time :  1621.3 secs   av.it.:  17.3
      thresh= 7.265E-10 alpha_mix =  0.700 |ddv_scf|^2 =  2.235E-18

      iter #  10 total cpu time :  1632.9 secs   av.it.:  17.9
      thresh= 1.495E-10 alpha_mix =  0.700 |ddv_scf|^2 =  5.242E-20

      iter #  11 total cpu time :  1644.6 secs   av.it.:  18.3
      thresh= 2.290E-11 alpha_mix =  0.700 |ddv_scf|^2 =  4.867E-21

      iter #  12 total cpu time :  1656.4 secs   av.it.:  18.1
      thresh= 6.976E-12 alpha_mix =  0.700 |ddv_scf|^2 =  1.810E-22

      iter #  13 total cpu time :  1667.8 secs   av.it.:  17.5
      thresh= 1.345E-12 alpha_mix =  0.700 |ddv_scf|^2 =  2.977E-24

     End of self-consistent calculation

     Convergence has been achieved 


     Representation #   6 mode #   6

     Self-consistent Calculation

      iter #   1 total cpu time :  1674.8 secs   av.it.:   8.6
      thresh= 1.000E-02 alpha_mix =  0.700 |ddv_scf|^2 =  3.560E-07

      iter #   2 total cpu time :  1685.9 secs   av.it.:  16.5
      thresh= 5.966E-05 alpha_mix =  0.700 |ddv_scf|^2 =  4.140E-08

      iter #   3 total cpu time :  1697.4 secs   av.it.:  17.0
      thresh= 2.035E-05 alpha_mix =  0.700 |ddv_scf|^2 =  9.461E-10

      iter #   4 total cpu time :  1721.0 secs   av.it.:  16.5
      thresh= 3.076E-06 alpha_mix =  0.700 |ddv_scf|^2 =  1.064E-11

      iter #   5 total cpu time :  1732.7 secs   av.it.:  17.7
      thresh= 3.262E-07 alpha_mix =  0.700 |ddv_scf|^2 =  1.517E-13

      iter #   6 total cpu time :  1744.2 secs   av.it.:  17.1
      thresh= 3.895E-08 alpha_mix =  0.700 |ddv_scf|^2 =  5.703E-16

      iter #   7 total cpu time :  1759.0 secs   av.it.:  17.1
      thresh= 2.388E-09 alpha_mix =  0.700 |ddv_scf|^2 =  2.902E-17

      iter #   8 total cpu time :  1770.3 secs   av.it.:  17.5
      thresh= 5.387E-10 alpha_mix =  0.700 |ddv_scf|^2 =  2.638E-19

      iter #   9 total cpu time :  1781.6 secs   av.it.:  17.4
      thresh= 5.136E-11 alpha_mix =  0.700 |ddv_scf|^2 =  1.440E-20

      iter #  10 total cpu time :  1792.8 secs   av.it.:  17.0
      thresh= 1.200E-11 alpha_mix =  0.700 |ddv_scf|^2 =  3.626E-22

      iter #  11 total cpu time :  1804.1 secs   av.it.:  17.5
      thresh= 1.904E-12 alpha_mix =  0.700 |ddv_scf|^2 =  1.972E-23

     End of self-consistent calculation

     Convergence has been achieved 


     Representation #   7 mode #   7

     Self-consistent Calculation

      iter #   1 total cpu time :  1812.4 secs   av.it.:  10.6
      thresh= 1.000E-02 alpha_mix =  0.700 |ddv_scf|^2 =  2.072E-05

      iter #   2 total cpu time :  1822.9 secs   av.it.:  15.9
      thresh= 4.552E-04 alpha_mix =  0.700 |ddv_scf|^2 =  1.937E-04

      iter #   3 total cpu time :  1832.8 secs   av.it.:  13.7
      thresh= 1.392E-03 alpha_mix =  0.700 |ddv_scf|^2 =  5.642E-06

      iter #   4 total cpu time :  1843.1 secs   av.it.:  14.9
      thresh= 2.375E-04 alpha_mix =  0.700 |ddv_scf|^2 =  1.420E-07

      iter #   5 total cpu time :  1853.3 secs   av.it.:  15.1
      thresh= 3.769E-05 alpha_mix =  0.700 |ddv_scf|^2 =  5.182E-10

      iter #   6 total cpu time :  1864.4 secs   av.it.:  16.9
      thresh= 2.276E-06 alpha_mix =  0.700 |ddv_scf|^2 =  3.378E-10

      iter #   7 total cpu time :  1874.6 secs   av.it.:  15.7
      thresh= 1.838E-06 alpha_mix =  0.700 |ddv_scf|^2 =  2.983E-12

      iter #   8 total cpu time :  1885.5 secs   av.it.:  16.7
      thresh= 1.727E-07 alpha_mix =  0.700 |ddv_scf|^2 =  3.411E-12

      iter #   9 total cpu time :  1895.5 secs   av.it.:  14.7
      thresh= 1.847E-07 alpha_mix =  0.700 |ddv_scf|^2 =  3.324E-12

      iter #  10 total cpu time :  1905.5 secs   av.it.:  14.8
      thresh= 1.823E-07 alpha_mix =  0.700 |ddv_scf|^2 =  3.380E-13

      iter #  11 total cpu time :  1916.1 secs   av.it.:  16.0
      thresh= 5.814E-08 alpha_mix =  0.700 |ddv_scf|^2 =  4.097E-14

      iter #  12 total cpu time :  1926.5 secs   av.it.:  15.8
      thresh= 2.024E-08 alpha_mix =  0.700 |ddv_scf|^2 =  1.348E-15

      iter #  13 total cpu time :  1937.5 secs   av.it.:  15.8
      thresh= 3.671E-09 alpha_mix =  0.700 |ddv_scf|^2 =  8.147E-17

      iter #  14 total cpu time :  1948.0 secs   av.it.:  15.9
      thresh= 9.026E-10 alpha_mix =  0.700 |ddv_scf|^2 =  1.493E-17

      iter #  15 total cpu time :  1958.3 secs   av.it.:  15.3
      thresh= 3.864E-10 alpha_mix =  0.700 |ddv_scf|^2 =  2.142E-20

      iter #  16 total cpu time :  1969.5 secs   av.it.:  17.5
      thresh= 1.464E-11 alpha_mix =  0.700 |ddv_scf|^2 =  2.853E-21

      iter #  17 total cpu time :  1980.7 secs   av.it.:  17.0
      thresh= 5.341E-12 alpha_mix =  0.700 |ddv_scf|^2 =  2.045E-21

      iter #  18 total cpu time :  1990.9 secs   av.it.:  15.3
      thresh= 4.523E-12 alpha_mix =  0.700 |ddv_scf|^2 =  1.753E-22

      iter #  19 total cpu time :  2001.2 secs   av.it.:  15.7
      thresh= 1.324E-12 alpha_mix =  0.700 |ddv_scf|^2 =  4.280E-24

     End of self-consistent calculation

     Convergence has been achieved 


     Representation #   8 mode #   8

     Self-consistent Calculation

      iter #   1 total cpu time :  2008.8 secs   av.it.:   9.9
      thresh= 1.000E-02 alpha_mix =  0.700 |ddv_scf|^2 =  6.492E-05

      iter #   2 total cpu time :  2019.4 secs   av.it.:  15.8
      thresh= 8.058E-04 alpha_mix =  0.700 |ddv_scf|^2 =  1.107E-03

      iter #   3 total cpu time :  2028.6 secs   av.it.:  13.5
      thresh= 3.327E-03 alpha_mix =  0.700 |ddv_scf|^2 =  6.818E-07

      iter #   4 total cpu time :  2039.1 secs   av.it.:  15.8
      thresh= 8.257E-05 alpha_mix =  0.700 |ddv_scf|^2 =  6.427E-08

      iter #   5 total cpu time :  2049.0 secs   av.it.:  14.8
      thresh= 2.535E-05 alpha_mix =  0.700 |ddv_scf|^2 =  2.200E-09

      iter #   6 total cpu time :  2060.6 secs   av.it.:  15.6
      thresh= 4.691E-06 alpha_mix =  0.700 |ddv_scf|^2 =  1.877E-10

      iter #   7 total cpu time :  2071.0 secs   av.it.:  15.7
      thresh= 1.370E-06 alpha_mix =  0.700 |ddv_scf|^2 =  8.927E-13

      iter #   8 total cpu time :  2081.4 secs   av.it.:  15.7
      thresh= 9.448E-08 alpha_mix =  0.700 |ddv_scf|^2 =  1.713E-14

      iter #   9 total cpu time :  2091.8 secs   av.it.:  15.9
      thresh= 1.309E-08 alpha_mix =  0.700 |ddv_scf|^2 =  6.275E-14

      iter #  10 total cpu time :  2101.5 secs   av.it.:  14.6
      thresh= 2.505E-08 alpha_mix =  0.700 |ddv_scf|^2 =  1.604E-15

      iter #  11 total cpu time :  2111.7 secs   av.it.:  15.2
      thresh= 4.004E-09 alpha_mix =  0.700 |ddv_scf|^2 =  1.890E-17

      iter #  12 total cpu time :  2122.8 secs   av.it.:  16.8
      thresh= 4.347E-10 alpha_mix =  0.700 |ddv_scf|^2 =  6.609E-19

      iter #  13 total cpu time :  2133.8 secs   av.it.:  16.8
      thresh= 8.129E-11 alpha_mix =  0.700 |ddv_scf|^2 =  7.964E-20

      iter #  14 total cpu time :  2144.6 secs   av.it.:  16.3
      thresh= 2.822E-11 alpha_mix =  0.700 |ddv_scf|^2 =  3.674E-21

      iter #  15 total cpu time :  2155.6 secs   av.it.:  17.2
      thresh= 6.061E-12 alpha_mix =  0.700 |ddv_scf|^2 =  6.626E-21

      iter #  16 total cpu time :  2165.9 secs   av.it.:  15.7
      thresh= 8.140E-12 alpha_mix =  0.700 |ddv_scf|^2 =  5.740E-21

      iter #  17 total cpu time :  2176.3 secs   av.it.:  15.4
      thresh= 7.576E-12 alpha_mix =  0.700 |ddv_scf|^2 =  8.997E-23

     End of self-consistent calculation

     Convergence has been achieved 


     Representation #   9 mode #   9

     Self-consistent Calculation

      iter #   1 total cpu time :  2185.1 secs   av.it.:  10.9
      thresh= 1.000E-02 alpha_mix =  0.700 |ddv_scf|^2 =  5.040E-05

      iter #   2 total cpu time :  2195.5 secs   av.it.:  15.8
      thresh= 7.099E-04 alpha_mix =  0.700 |ddv_scf|^2 =  7.113E-04

      iter #   3 total cpu time :  2204.8 secs   av.it.:  13.6
      thresh= 2.667E-03 alpha_mix =  0.700 |ddv_scf|^2 =  9.722E-07

      iter #   4 total cpu time :  2215.2 secs   av.it.:  15.8
      thresh= 9.860E-05 alpha_mix =  0.700 |ddv_scf|^2 =  2.702E-07

      iter #   5 total cpu time :  2225.3 secs   av.it.:  15.0
      thresh= 5.198E-05 alpha_mix =  0.700 |ddv_scf|^2 =  7.599E-10

      iter #   6 total cpu time :  2236.2 secs   av.it.:  16.8
      thresh= 2.757E-06 alpha_mix =  0.700 |ddv_scf|^2 =  3.018E-10

      iter #   7 total cpu time :  2246.6 secs   av.it.:  15.7
      thresh= 1.737E-06 alpha_mix =  0.700 |ddv_scf|^2 =  2.153E-12

      iter #   8 total cpu time :  2257.9 secs   av.it.:  17.6
      thresh= 1.467E-07 alpha_mix =  0.700 |ddv_scf|^2 =  2.432E-11

      iter #   9 total cpu time :  2267.3 secs   av.it.:  13.7
      thresh= 4.932E-07 alpha_mix =  0.700 |ddv_scf|^2 =  3.207E-12

      iter #  10 total cpu time :  2277.0 secs   av.it.:  14.6
      thresh= 1.791E-07 alpha_mix =  0.700 |ddv_scf|^2 =  7.031E-14

      iter #  11 total cpu time :  2288.1 secs   av.it.:  16.8
      thresh= 2.652E-08 alpha_mix =  0.700 |ddv_scf|^2 =  8.428E-15

      iter #  12 total cpu time :  2301.7 secs   av.it.:  16.8
      thresh= 9.180E-09 alpha_mix =  0.700 |ddv_scf|^2 =  2.080E-15

      iter #  13 total cpu time :  2323.1 secs   av.it.:  15.9
      thresh= 4.561E-09 alpha_mix =  0.700 |ddv_scf|^2 =  1.856E-16

      iter #  14 total cpu time :  2333.2 secs   av.it.:  15.1
      thresh= 1.362E-09 alpha_mix =  0.700 |ddv_scf|^2 =  8.259E-19

      iter #  15 total cpu time :  2344.5 secs   av.it.:  16.8
      thresh= 9.088E-11 alpha_mix =  0.700 |ddv_scf|^2 =  3.551E-20

      iter #  16 total cpu time :  2359.6 secs   av.it.:  16.8
      thresh= 1.884E-11 alpha_mix =  0.700 |ddv_scf|^2 =  2.961E-21

      iter #  17 total cpu time :  2370.6 secs   av.it.:  17.1
      thresh= 5.441E-12 alpha_mix =  0.700 |ddv_scf|^2 =  2.243E-21

      iter #  18 total cpu time :  2380.7 secs   av.it.:  15.6
      thresh= 4.736E-12 alpha_mix =  0.700 |ddv_scf|^2 =  3.096E-22

      iter #  19 total cpu time :  2391.0 secs   av.it.:  15.1
      thresh= 1.760E-12 alpha_mix =  0.700 |ddv_scf|^2 =  3.546E-23

     End of self-consistent calculation

     Convergence has been achieved 
 
     Number of q in the star =    3
     List of q in the star:
          1   0.000000000   0.144337567   0.000000000
          2  -0.125000000  -0.072168784   0.000000000
          3   0.125000000  -0.072168784   0.000000000
     In addition there is the -q list: 
          1   0.000000000  -0.144337567   0.000000000
          2   0.125000000   0.072168784   0.000000000
          3  -0.125000000   0.072168784   0.000000000

     Diagonalizing the dynamical matrix

     q = (    0.000000000   0.144337567   0.000000000 ) 

 **************************************************************************
     freq (    1) =       0.630236 [THz] =      21.022403 [cm-1]
     freq (    2) =       1.371140 [THz] =      45.736305 [cm-1]
     freq (    3) =       2.182597 [THz] =      72.803606 [cm-1]
     freq (    4) =       5.125026 [THz] =     170.952476 [cm-1]
     freq (    5) =       5.399881 [THz] =     180.120632 [cm-1]
     freq (    6) =       7.056790 [THz] =     235.389171 [cm-1]
     freq (    7) =       8.648307 [THz] =     288.476453 [cm-1]
     freq (    8) =       8.812918 [THz] =     293.967303 [cm-1]
     freq (    9) =      10.431010 [THz] =     347.941039 [cm-1]
 **************************************************************************

     Mode symmetry, C_2v (mm2)  point group:

     freq (   1-   1) =         21.0  [cm-1]   --> B_2  D_4  S_4      
     freq (   2-   2) =         45.7  [cm-1]   --> B_1  D_3  S_3      
     freq (   3-   3) =         72.8  [cm-1]   --> A_1  D_1  S_1      
     freq (   4-   4) =        171.0  [cm-1]   --> A_2  D_2  S_2      
     freq (   5-   5) =        180.1  [cm-1]   --> B_2  D_4  S_4      
     freq (   6-   6) =        235.4  [cm-1]   --> A_1  D_1  S_1      
     freq (   7-   7) =        288.5  [cm-1]   --> B_1  D_3  S_3      
     freq (   8-   8) =        294.0  [cm-1]   --> A_1  D_1  S_1      
     freq (   9-   9) =        347.9  [cm-1]   --> B_2  D_4  S_4      

     Calculation of q =    0.0000000   0.2886751   0.0000000
 
     Parallelization info
     --------------------
     sticks:   dense  smooth     PW     G-vecs:    dense   smooth      PW
     Min          44      44     13                 9532     9532    1533
     Max          45      45     14                 9567     9567    1568
     Sum        1069    1069    313               229233   229233   37075
 

     Title: 
     phonon                                                                     


     bravais-lattice index     =            4
     lattice parameter (alat)  =       6.1734  a.u.
     unit-cell volume          =    1646.5987 (a.u.)^3
     number of atoms/cell      =            3
     number of atomic types    =            2
     number of electrons       =        46.00
     number of Kohn-Sham states=           23
     kinetic-energy cutoff     =     102.0000  Ry
     charge density cutoff     =     408.0000  Ry
     Exchange-correlation= PBESOL
                           (   1   4  10   8   0   0   0)

     celldm(1)=   6.173437  celldm(2)=   0.000000  celldm(3)=   8.081203
     celldm(4)=   0.000000  celldm(5)=   0.000000  celldm(6)=   0.000000

     crystal axes: (cart. coord. in units of alat)
               a(1) = (   1.000000   0.000000   0.000000 )  
               a(2) = (  -0.500000   0.866025   0.000000 )  
               a(3) = (   0.000000   0.000000   8.081203 )  

     reciprocal axes: (cart. coord. in units 2 pi/alat)
               b(1) = (  1.000000  0.577350  0.000000 )  
               b(2) = (  0.000000  1.154701  0.000000 )  
               b(3) = (  0.000000  0.000000  0.123744 )  


     PseudoPot. # 1 for Mo read from file:
     /scratch1/fanchem/MoSe2/pp/Mo.pbesol-spn-kjpaw_psl.1.0.0.UPF
     MD5 check sum: 2f69e612011640a3284f00f973390535
     Pseudo is Projector augmented-wave + core cor, Zval = 14.0
     Generated using "atomic" code by A. Dal Corso v.6.3
     Shape of augmentation charge: PSQ
     Using radial grid of 1229 points,  6 beta functions with: 
                l(1) =   0
                l(2) =   0
                l(3) =   1
                l(4) =   1
                l(5) =   2
                l(6) =   2
     Q(r) pseudized with 0 coefficients 


     PseudoPot. # 2 for Se read from file:
     /scratch1/fanchem/MoSe2/pp/Se.pbesol-dn-kjpaw_psl.1.0.0.UPF
     MD5 check sum: 96421e4d850e5e17b279567c6a17bf72
     Pseudo is Projector augmented-wave + core cor, Zval = 16.0
     Generated using "atomic" code by A. Dal Corso v.6.3
     Shape of augmentation charge: PSQ
     Using radial grid of 1211 points,  6 beta functions with: 
                l(1) =   0
                l(2) =   0
                l(3) =   1
                l(4) =   1
                l(5) =   2
                l(6) =   2
     Q(r) pseudized with 0 coefficients 


     atomic species   valence    mass     pseudopotential
        Mo            14.00    95.95000     Mo( 1.00)
        Se            16.00    78.96000     Se( 1.00)

     12 Sym. Ops. (no inversion) found



   Cartesian axes

     site n.     atom                  positions (alat units)
         1           Mo  tau(   1) = (  -0.0000000   0.5773503   4.0406015  )
         2           Se  tau(   2) = (   0.5000000   0.2886751   3.5309875  )
         3           Se  tau(   3) = (   0.5000000   0.2886751   4.5502155  )

     number of k points=   110

     Number of k-points >= 100: set verbosity='high' to print them.

     Dense  grid:   229233 G-vectors     FFT dimensions: (  40,  40, 324)

     Estimated max dynamical RAM per process >      21.67 MB

     Estimated total dynamical RAM >       1.02 GB

     The potential is recalculated from file :
     ./_ph0/mose2.q_3/mose2.save/charge-density


     negative rho (up, down):  1.202E-04 0.000E+00
     Starting wfcs are   28 atomic wfcs
     Checking if some PAW data can be deallocated... 

     Band Structure Calculation
     Davidson diagonalization with overlap

     ethr =  2.17E-11,  avg # of iterations = 15.1

     total cpu time spent up to now is       48.6 secs

     End of band structure calculation

     Number of k-points >= 100: set verbosity='high' to print the bands.

     highest occupied level (ev):    -1.2496

     Writing output data file ./_ph0/mose2.q_3/mose2.save/

     phonon                                                                     

     bravais-lattice index     =            4
     lattice parameter (alat)  =       6.1734  a.u.
     unit-cell volume          =    1646.5987 (a.u.)^3
     number of atoms/cell      =            3
     number of atomic types    =            2
     kinetic-energy cut-off    =     102.0000  Ry
     charge density cut-off    =     408.0000  Ry
     convergence threshold     =      1.0E-22
     beta                      =       0.7000
     number of iterations used =            4
     Exchange-correlation= PBESOL
                           (   1   4  10   8   0   0   0)


     celldm(1)=    6.17344  celldm(2)=    0.00000  celldm(3)=    8.08120
     celldm(4)=    0.00000  celldm(5)=    0.00000  celldm(6)=    0.00000

     crystal axes: (cart. coord. in units of alat)
               a(1) = (  1.0000  0.0000  0.0000 )  
               a(2) = ( -0.5000  0.8660  0.0000 )  
               a(3) = (  0.0000  0.0000  8.0812 )  

     reciprocal axes: (cart. coord. in units 2 pi/alat)
               b(1) = (  1.0000  0.5774  0.0000 )  
               b(2) = (  0.0000  1.1547  0.0000 )  
               b(3) = (  0.0000  0.0000  0.1237 )  


     Atoms inside the unit cell: 

     Cartesian axes

     site n.  atom      mass           positions (alat units)
        1     Mo  95.9500   tau(    1) = (   -0.00000    0.57735    4.04060  )
        2     Se  78.9600   tau(    2) = (    0.50000    0.28868    3.53099  )
        3     Se  78.9600   tau(    3) = (    0.50000    0.28868    4.55022  )

     Computing dynamical matrix for 
                    q = (   0.0000000   0.2886751   0.0000000 )
 
      4 Sym.Ops. (no q -> -q+G )


     G cutoff =  393.8715  (   9544 G-vectors)     FFT grid: ( 40, 40,324)
     number of k points=   110

     PseudoPot. # 1 for Mo read from file:
     /scratch1/fanchem/MoSe2/pp/Mo.pbesol-spn-kjpaw_psl.1.0.0.UPF
     MD5 check sum: 2f69e612011640a3284f00f973390535
     Pseudo is Projector augmented-wave + core cor, Zval = 14.0
     Generated using "atomic" code by A. Dal Corso v.6.3
     Shape of augmentation charge: PSQ
     Using radial grid of 1229 points,  6 beta functions with: 
                l(1) =   0
                l(2) =   0
                l(3) =   1
                l(4) =   1
                l(5) =   2
                l(6) =   2
     Q(r) pseudized with 0 coefficients 


     PseudoPot. # 2 for Se read from file:
     /scratch1/fanchem/MoSe2/pp/Se.pbesol-dn-kjpaw_psl.1.0.0.UPF
     MD5 check sum: 96421e4d850e5e17b279567c6a17bf72
     Pseudo is Projector augmented-wave + core cor, Zval = 16.0
     Generated using "atomic" code by A. Dal Corso v.6.3
     Shape of augmentation charge: PSQ
     Using radial grid of 1211 points,  6 beta functions with: 
                l(1) =   0
                l(2) =   0
                l(3) =   1
                l(4) =   1
                l(5) =   2
                l(6) =   2
     Q(r) pseudized with 0 coefficients 


     Mode symmetry, C_2v (mm2)  point group:


     Atomic displacements:
     There are    9 irreducible representations

     Representation     1      1 modes -  To be done

     Representation     2      1 modes -  To be done

     Representation     3      1 modes -  To be done

     Representation     4      1 modes -  To be done

     Representation     5      1 modes -  To be done

     Representation     6      1 modes -  To be done

     Representation     7      1 modes -  To be done

     Representation     8      1 modes -  To be done

     Representation     9      1 modes -  To be done



     Alpha used in Ewald sum =   2.8000

     negative rho (up, down):  1.202E-04 0.000E+00
     PHONON       :  38m12.54s CPU  40m16.05s WALL



     Representation #   1 mode #   1

     Self-consistent Calculation

      iter #   1 total cpu time :  2424.2 secs   av.it.:  11.3
      thresh= 1.000E-02 alpha_mix =  0.700 |ddv_scf|^2 =  1.324E-04

      iter #   2 total cpu time :  2435.3 secs   av.it.:  16.6
      thresh= 1.151E-03 alpha_mix =  0.700 |ddv_scf|^2 =  6.575E-03

      iter #   3 total cpu time :  2444.7 secs   av.it.:  13.7
      thresh= 8.108E-03 alpha_mix =  0.700 |ddv_scf|^2 =  1.020E-05

      iter #   4 total cpu time :  2455.0 secs   av.it.:  15.6
      thresh= 3.193E-04 alpha_mix =  0.700 |ddv_scf|^2 =  2.688E-06

      iter #   5 total cpu time :  2465.7 secs   av.it.:  15.6
      thresh= 1.639E-04 alpha_mix =  0.700 |ddv_scf|^2 =  2.348E-08

      iter #   6 total cpu time :  2477.0 secs   av.it.:  16.9
      thresh= 1.532E-05 alpha_mix =  0.700 |ddv_scf|^2 =  5.893E-10

      iter #   7 total cpu time :  2488.3 secs   av.it.:  17.6
      thresh= 2.427E-06 alpha_mix =  0.700 |ddv_scf|^2 =  4.194E-10

      iter #   8 total cpu time :  2498.9 secs   av.it.:  15.9
      thresh= 2.048E-06 alpha_mix =  0.700 |ddv_scf|^2 =  2.107E-10

      iter #   9 total cpu time :  2509.5 secs   av.it.:  15.7
      thresh= 1.451E-06 alpha_mix =  0.700 |ddv_scf|^2 =  5.371E-10

      iter #  10 total cpu time :  2519.6 secs   av.it.:  15.1
      thresh= 2.317E-06 alpha_mix =  0.700 |ddv_scf|^2 =  6.569E-11

      iter #  11 total cpu time :  2530.1 secs   av.it.:  15.0
      thresh= 8.105E-07 alpha_mix =  0.700 |ddv_scf|^2 =  8.377E-12

      iter #  12 total cpu time :  2541.0 secs   av.it.:  15.7
      thresh= 2.894E-07 alpha_mix =  0.700 |ddv_scf|^2 =  2.737E-12

      iter #  13 total cpu time :  2551.4 secs   av.it.:  15.7
      thresh= 1.655E-07 alpha_mix =  0.700 |ddv_scf|^2 =  3.815E-13

      iter #  14 total cpu time :  2562.0 secs   av.it.:  15.8
      thresh= 6.177E-08 alpha_mix =  0.700 |ddv_scf|^2 =  6.069E-14

      iter #  15 total cpu time :  2572.7 secs   av.it.:  16.6
      thresh= 2.464E-08 alpha_mix =  0.700 |ddv_scf|^2 =  6.171E-14

      iter #  16 total cpu time :  2583.2 secs   av.it.:  15.6
      thresh= 2.484E-08 alpha_mix =  0.700 |ddv_scf|^2 =  8.734E-15

      iter #  17 total cpu time :  2593.1 secs   av.it.:  14.7
      thresh= 9.346E-09 alpha_mix =  0.700 |ddv_scf|^2 =  6.479E-16

      iter #  18 total cpu time :  2604.1 secs   av.it.:  16.7
      thresh= 2.545E-09 alpha_mix =  0.700 |ddv_scf|^2 =  6.918E-16

      iter #  19 total cpu time :  2614.4 secs   av.it.:  14.7
      thresh= 2.630E-09 alpha_mix =  0.700 |ddv_scf|^2 =  1.137E-16

      iter #  20 total cpu time :  2624.6 secs   av.it.:  15.6
      thresh= 1.066E-09 alpha_mix =  0.700 |ddv_scf|^2 =  1.966E-17

      iter #  21 total cpu time :  2635.0 secs   av.it.:  15.5
      thresh= 4.434E-10 alpha_mix =  0.700 |ddv_scf|^2 =  8.308E-19

      iter #  22 total cpu time :  2646.0 secs   av.it.:  16.7
      thresh= 9.115E-11 alpha_mix =  0.700 |ddv_scf|^2 =  9.749E-19

      iter #  23 total cpu time :  2656.7 secs   av.it.:  15.7
      thresh= 9.874E-11 alpha_mix =  0.700 |ddv_scf|^2 =  9.917E-19

      iter #  24 total cpu time :  2667.3 secs   av.it.:  15.0
      thresh= 9.959E-11 alpha_mix =  0.700 |ddv_scf|^2 =  7.613E-20

      iter #  25 total cpu time :  2678.2 secs   av.it.:  16.7
      thresh= 2.759E-11 alpha_mix =  0.700 |ddv_scf|^2 =  9.386E-20

      iter #  26 total cpu time :  2687.6 secs   av.it.:  13.7
      thresh= 3.064E-11 alpha_mix =  0.700 |ddv_scf|^2 =  1.182E-20

      iter #  27 total cpu time :  2698.4 secs   av.it.:  16.6
      thresh= 1.087E-11 alpha_mix =  0.700 |ddv_scf|^2 =  3.969E-21

      iter #  28 total cpu time :  2709.2 secs   av.it.:  15.6
      thresh= 6.300E-12 alpha_mix =  0.700 |ddv_scf|^2 =  6.437E-23

     End of self-consistent calculation

     Convergence has been achieved 


     Representation #   2 mode #   2

     Self-consistent Calculation

      iter #   1 total cpu time :  2717.7 secs   av.it.:  11.0
      thresh= 1.000E-02 alpha_mix =  0.700 |ddv_scf|^2 =  4.828E-05

      iter #   2 total cpu time :  2728.8 secs   av.it.:  16.7
      thresh= 6.948E-04 alpha_mix =  0.700 |ddv_scf|^2 =  1.849E-03

      iter #   3 total cpu time :  2738.2 secs   av.it.:  13.7
      thresh= 4.300E-03 alpha_mix =  0.700 |ddv_scf|^2 =  2.758E-05

      iter #   4 total cpu time :  2748.3 secs   av.it.:  14.9
      thresh= 5.252E-04 alpha_mix =  0.700 |ddv_scf|^2 =  1.880E-06

      iter #   5 total cpu time :  2758.7 secs   av.it.:  15.7
      thresh= 1.371E-04 alpha_mix =  0.700 |ddv_scf|^2 =  4.669E-08

      iter #   6 total cpu time :  2769.7 secs   av.it.:  16.5
      thresh= 2.161E-05 alpha_mix =  0.700 |ddv_scf|^2 =  6.168E-10

      iter #   7 total cpu time :  2781.3 secs   av.it.:  17.5
      thresh= 2.484E-06 alpha_mix =  0.700 |ddv_scf|^2 =  9.999E-11

      iter #   8 total cpu time :  2792.7 secs   av.it.:  17.3
      thresh= 1.000E-06 alpha_mix =  0.700 |ddv_scf|^2 =  8.222E-10

      iter #   9 total cpu time :  2802.8 secs   av.it.:  14.6
      thresh= 2.867E-06 alpha_mix =  0.700 |ddv_scf|^2 =  2.154E-10

      iter #  10 total cpu time :  2813.0 secs   av.it.:  15.6
      thresh= 1.468E-06 alpha_mix =  0.700 |ddv_scf|^2 =  7.946E-11

      iter #  11 total cpu time :  2822.9 secs   av.it.:  14.6
      thresh= 8.914E-07 alpha_mix =  0.700 |ddv_scf|^2 =  9.855E-12

      iter #  12 total cpu time :  2833.2 secs   av.it.:  15.7
      thresh= 3.139E-07 alpha_mix =  0.700 |ddv_scf|^2 =  2.602E-12

      iter #  13 total cpu time :  2843.5 secs   av.it.:  15.6
      thresh= 1.613E-07 alpha_mix =  0.700 |ddv_scf|^2 =  1.551E-14

      iter #  14 total cpu time :  2854.7 secs   av.it.:  17.2
      thresh= 1.245E-08 alpha_mix =  0.700 |ddv_scf|^2 =  6.380E-15

      iter #  15 total cpu time :  2865.8 secs   av.it.:  16.5
      thresh= 7.988E-09 alpha_mix =  0.700 |ddv_scf|^2 =  1.333E-14

      iter #  16 total cpu time :  2876.8 secs   av.it.:  14.7
      thresh= 1.155E-08 alpha_mix =  0.700 |ddv_scf|^2 =  3.201E-16

      iter #  17 total cpu time :  2888.1 secs   av.it.:  17.2
      thresh= 1.789E-09 alpha_mix =  0.700 |ddv_scf|^2 =  8.817E-16

      iter #  18 total cpu time :  2899.5 secs   av.it.:  15.5
      thresh= 2.969E-09 alpha_mix =  0.700 |ddv_scf|^2 =  1.189E-16

      iter #  19 total cpu time :  2922.5 secs   av.it.:  15.4
      thresh= 1.090E-09 alpha_mix =  0.700 |ddv_scf|^2 =  2.738E-18

      iter #  20 total cpu time :  2933.6 secs   av.it.:  17.2
      thresh= 1.655E-10 alpha_mix =  0.700 |ddv_scf|^2 =  8.971E-19

      iter #  21 total cpu time :  2944.6 secs   av.it.:  16.6
      thresh= 9.472E-11 alpha_mix =  0.700 |ddv_scf|^2 =  4.971E-19

      iter #  22 total cpu time :  2959.0 secs   av.it.:  16.7
      thresh= 7.051E-11 alpha_mix =  0.700 |ddv_scf|^2 =  2.486E-19

      iter #  23 total cpu time :  2969.6 secs   av.it.:  15.7
      thresh= 4.986E-11 alpha_mix =  0.700 |ddv_scf|^2 =  2.631E-20

      iter #  24 total cpu time :  2980.1 secs   av.it.:  15.7
      thresh= 1.622E-11 alpha_mix =  0.700 |ddv_scf|^2 =  7.254E-21

      iter #  25 total cpu time :  2990.9 secs   av.it.:  16.2
      thresh= 8.517E-12 alpha_mix =  0.700 |ddv_scf|^2 =  6.523E-22

      iter #  26 total cpu time :  3002.2 secs   av.it.:  17.5
      thresh= 2.554E-12 alpha_mix =  0.700 |ddv_scf|^2 =  1.242E-22

      iter #  27 total cpu time :  3013.2 secs   av.it.:  16.7
      thresh= 1.114E-12 alpha_mix =  0.700 |ddv_scf|^2 =  1.293E-22

      iter #  28 total cpu time :  3023.3 secs   av.it.:  14.6
      thresh= 1.137E-12 alpha_mix =  0.700 |ddv_scf|^2 =  1.121E-23

     End of self-consistent calculation

     Convergence has been achieved 


     Representation #   3 mode #   3

     Self-consistent Calculation

      iter #   1 total cpu time :  3031.0 secs   av.it.:   9.9
      thresh= 1.000E-02 alpha_mix =  0.700 |ddv_scf|^2 =  6.846E-05

      iter #   2 total cpu time :  3041.7 secs   av.it.:  16.5
      thresh= 8.274E-04 alpha_mix =  0.700 |ddv_scf|^2 =  3.065E-03

      iter #   3 total cpu time :  3051.0 secs   av.it.:  13.6
      thresh= 5.537E-03 alpha_mix =  0.700 |ddv_scf|^2 =  1.451E-05

      iter #   4 total cpu time :  3061.1 secs   av.it.:  14.7
      thresh= 3.809E-04 alpha_mix =  0.700 |ddv_scf|^2 =  3.419E-06

      iter #   5 total cpu time :  3071.2 secs   av.it.:  14.8
      thresh= 1.849E-04 alpha_mix =  0.700 |ddv_scf|^2 =  4.841E-08

      iter #   6 total cpu time :  3082.0 secs   av.it.:  16.5
      thresh= 2.200E-05 alpha_mix =  0.700 |ddv_scf|^2 =  1.205E-09

      iter #   7 total cpu time :  3092.7 secs   av.it.:  16.4
      thresh= 3.471E-06 alpha_mix =  0.700 |ddv_scf|^2 =  1.433E-10

      iter #   8 total cpu time :  3103.6 secs   av.it.:  16.6
      thresh= 1.197E-06 alpha_mix =  0.700 |ddv_scf|^2 =  2.323E-11

      iter #   9 total cpu time :  3114.2 secs   av.it.:  15.7
      thresh= 4.819E-07 alpha_mix =  0.700 |ddv_scf|^2 =  5.046E-11

      iter #  10 total cpu time :  3124.3 secs   av.it.:  14.9
      thresh= 7.103E-07 alpha_mix =  0.700 |ddv_scf|^2 =  1.064E-11

      iter #  11 total cpu time :  3134.3 secs   av.it.:  15.0
      thresh= 3.262E-07 alpha_mix =  0.700 |ddv_scf|^2 =  5.334E-13

      iter #  12 total cpu time :  3146.8 secs   av.it.:  15.9
      thresh= 7.303E-08 alpha_mix =  0.700 |ddv_scf|^2 =  3.612E-14

      iter #  13 total cpu time :  3157.7 secs   av.it.:  16.6
      thresh= 1.901E-08 alpha_mix =  0.700 |ddv_scf|^2 =  8.082E-14

      iter #  14 total cpu time :  3167.6 secs   av.it.:  14.7
      thresh= 2.843E-08 alpha_mix =  0.700 |ddv_scf|^2 =  3.814E-16

      iter #  15 total cpu time :  3178.9 secs   av.it.:  17.6
      thresh= 1.953E-09 alpha_mix =  0.700 |ddv_scf|^2 =  3.229E-16

      iter #  16 total cpu time :  3189.6 secs   av.it.:  16.5
      thresh= 1.797E-09 alpha_mix =  0.700 |ddv_scf|^2 =  4.051E-16

      iter #  17 total cpu time :  3200.0 secs   av.it.:  15.6
      thresh= 2.013E-09 alpha_mix =  0.700 |ddv_scf|^2 =  3.197E-16

      iter #  18 total cpu time :  3209.8 secs   av.it.:  14.6
      thresh= 1.788E-09 alpha_mix =  0.700 |ddv_scf|^2 =  8.796E-17

      iter #  19 total cpu time :  3220.4 secs   av.it.:  15.7
      thresh= 9.378E-10 alpha_mix =  0.700 |ddv_scf|^2 =  1.009E-16

      iter #  20 total cpu time :  3230.5 secs   av.it.:  14.9
      thresh= 1.005E-09 alpha_mix =  0.700 |ddv_scf|^2 =  1.099E-18

      iter #  21 total cpu time :  3241.3 secs   av.it.:  16.3
      thresh= 1.048E-10 alpha_mix =  0.700 |ddv_scf|^2 =  1.786E-19

      iter #  22 total cpu time :  3251.8 secs   av.it.:  15.0
      thresh= 4.226E-11 alpha_mix =  0.700 |ddv_scf|^2 =  1.649E-20

      iter #  23 total cpu time :  3262.8 secs   av.it.:  16.7
      thresh= 1.284E-11 alpha_mix =  0.700 |ddv_scf|^2 =  1.394E-20

      iter #  24 total cpu time :  3273.3 secs   av.it.:  15.3
      thresh= 1.181E-11 alpha_mix =  0.700 |ddv_scf|^2 =  9.610E-21

      iter #  25 total cpu time :  3283.8 secs   av.it.:  15.7
      thresh= 9.803E-12 alpha_mix =  0.700 |ddv_scf|^2 =  2.859E-22

      iter #  26 total cpu time :  3295.5 secs   av.it.:  17.6
      thresh= 1.691E-12 alpha_mix =  0.700 |ddv_scf|^2 =  1.709E-21

      iter #  27 total cpu time :  3305.5 secs   av.it.:  14.7
      thresh= 4.133E-12 alpha_mix =  0.700 |ddv_scf|^2 =  1.079E-22

      iter #  28 total cpu time :  3316.1 secs   av.it.:  15.9
      thresh= 1.039E-12 alpha_mix =  0.700 |ddv_scf|^2 =  1.944E-24

     End of self-consistent calculation

     Convergence has been achieved 


     Representation #   4 mode #   4

     Self-consistent Calculation

      iter #   1 total cpu time :  3323.9 secs   av.it.:  10.0
      thresh= 1.000E-02 alpha_mix =  0.700 |ddv_scf|^2 =  1.101E-06

      iter #   2 total cpu time :  3335.0 secs   av.it.:  17.3
      thresh= 1.049E-04 alpha_mix =  0.700 |ddv_scf|^2 =  7.345E-08

      iter #   3 total cpu time :  3346.2 secs   av.it.:  17.3
      thresh= 2.710E-05 alpha_mix =  0.700 |ddv_scf|^2 =  1.258E-09

      iter #   4 total cpu time :  3357.5 secs   av.it.:  17.4
      thresh= 3.547E-06 alpha_mix =  0.700 |ddv_scf|^2 =  1.254E-11

      iter #   5 total cpu time :  3368.8 secs   av.it.:  17.3
      thresh= 3.541E-07 alpha_mix =  0.700 |ddv_scf|^2 =  3.861E-13

      iter #   6 total cpu time :  3379.8 secs   av.it.:  17.1
      thresh= 6.214E-08 alpha_mix =  0.700 |ddv_scf|^2 =  2.999E-15

      iter #   7 total cpu time :  3391.3 secs   av.it.:  17.2
      thresh= 5.476E-09 alpha_mix =  0.700 |ddv_scf|^2 =  1.784E-16

      iter #   8 total cpu time :  3402.5 secs   av.it.:  17.3
      thresh= 1.336E-09 alpha_mix =  0.700 |ddv_scf|^2 =  1.798E-18

      iter #   9 total cpu time :  3413.8 secs   av.it.:  17.4
      thresh= 1.341E-10 alpha_mix =  0.700 |ddv_scf|^2 =  3.423E-20

      iter #  10 total cpu time :  3425.4 secs   av.it.:  17.5
      thresh= 1.850E-11 alpha_mix =  0.700 |ddv_scf|^2 =  3.643E-22

      iter #  11 total cpu time :  3436.6 secs   av.it.:  17.4
      thresh= 1.909E-12 alpha_mix =  0.700 |ddv_scf|^2 =  2.126E-23

     End of self-consistent calculation

     Convergence has been achieved 


     Representation #   5 mode #   5

     Self-consistent Calculation

      iter #   1 total cpu time :  3444.3 secs   av.it.:  10.1
      thresh= 1.000E-02 alpha_mix =  0.700 |ddv_scf|^2 =  1.181E-06

      iter #   2 total cpu time :  3455.8 secs   av.it.:  17.3
      thresh= 1.087E-04 alpha_mix =  0.700 |ddv_scf|^2 =  1.159E-07

      iter #   3 total cpu time :  3467.1 secs   av.it.:  17.3
      thresh= 3.404E-05 alpha_mix =  0.700 |ddv_scf|^2 =  2.206E-09

      iter #   4 total cpu time :  3478.7 secs   av.it.:  17.6
[...]

      iter #  11 total cpu time : 26756.4 secs   av.it.:  15.8
      thresh= 2.625E-07 alpha_mix =  0.700 |ddv_scf|^2 =  8.180E-14

      iter #  12 total cpu time : 26777.2 secs   av.it.:  17.3
      thresh= 2.860E-08 alpha_mix =  0.700 |ddv_scf|^2 =  1.975E-13

      iter #  13 total cpu time : 26795.8 secs   av.it.:  15.0
      thresh= 4.445E-08 alpha_mix =  0.700 |ddv_scf|^2 =  2.112E-14

      iter #  14 total cpu time : 26816.4 secs   av.it.:  16.8
      thresh= 1.453E-08 alpha_mix =  0.700 |ddv_scf|^2 =  3.110E-15

      iter #  15 total cpu time : 26836.9 secs   av.it.:  17.0
      thresh= 5.577E-09 alpha_mix =  0.700 |ddv_scf|^2 =  2.166E-16

      iter #  16 total cpu time : 26857.6 secs   av.it.:  17.3
      thresh= 1.472E-09 alpha_mix =  0.700 |ddv_scf|^2 =  3.548E-17

      iter #  17 total cpu time : 26878.8 secs   av.it.:  17.8
      thresh= 5.957E-10 alpha_mix =  0.700 |ddv_scf|^2 =  5.281E-17

      iter #  18 total cpu time : 26900.8 secs   av.it.:  16.9
      thresh= 7.267E-10 alpha_mix =  0.700 |ddv_scf|^2 =  1.636E-17

      iter #  19 total cpu time : 26932.5 secs   av.it.:  16.0
      thresh= 4.044E-10 alpha_mix =  0.700 |ddv_scf|^2 =  9.492E-18

      iter #  20 total cpu time : 26955.9 secs   av.it.:  16.0
      thresh= 3.081E-10 alpha_mix =  0.700 |ddv_scf|^2 =  8.341E-19

      iter #  21 total cpu time : 26975.6 secs   av.it.:  16.1
      thresh= 9.133E-11 alpha_mix =  0.700 |ddv_scf|^2 =  8.986E-20

      iter #  22 total cpu time : 26995.7 secs   av.it.:  16.9
      thresh= 2.998E-11 alpha_mix =  0.700 |ddv_scf|^2 =  7.656E-21

      iter #  23 total cpu time : 27017.0 secs   av.it.:  17.8
      thresh= 8.750E-12 alpha_mix =  0.700 |ddv_scf|^2 =  1.671E-20

      iter #  24 total cpu time : 27036.5 secs   av.it.:  16.0
      thresh= 1.293E-11 alpha_mix =  0.700 |ddv_scf|^2 =  2.023E-21

      iter #  25 total cpu time : 27057.4 secs   av.it.:  17.0
      thresh= 4.498E-12 alpha_mix =  0.700 |ddv_scf|^2 =  8.985E-21

      iter #  26 total cpu time : 27076.2 secs   av.it.:  15.0
      thresh= 9.479E-12 alpha_mix =  0.700 |ddv_scf|^2 =  5.778E-22

      iter #  27 total cpu time : 27096.4 secs   av.it.:  16.9
      thresh= 2.404E-12 alpha_mix =  0.700 |ddv_scf|^2 =  1.086E-22

      iter #  28 total cpu time : 27116.7 secs   av.it.:  16.9
      thresh= 1.042E-12 alpha_mix =  0.700 |ddv_scf|^2 =  5.217E-24

     End of self-consistent calculation

     Convergence has been achieved 


     Representation #   6 mode #   6

     Self-consistent Calculation

      iter #   1 total cpu time : 27131.5 secs   av.it.:  10.9
      thresh= 1.000E-02 alpha_mix =  0.700 |ddv_scf|^2 =  2.841E-06

      iter #   2 total cpu time : 27152.5 secs   av.it.:  17.9
      thresh= 1.685E-04 alpha_mix =  0.700 |ddv_scf|^2 =  1.368E-06

      iter #   3 total cpu time : 27173.5 secs   av.it.:  17.0
      thresh= 1.169E-04 alpha_mix =  0.700 |ddv_scf|^2 =  1.554E-08

      iter #   4 total cpu time : 27195.0 secs   av.it.:  18.0
      thresh= 1.247E-05 alpha_mix =  0.700 |ddv_scf|^2 =  4.421E-09

      iter #   5 total cpu time : 27215.6 secs   av.it.:  17.2
      thresh= 6.649E-06 alpha_mix =  0.700 |ddv_scf|^2 =  3.784E-10

      iter #   6 total cpu time : 27236.6 secs   av.it.:  17.9
      thresh= 1.945E-06 alpha_mix =  0.700 |ddv_scf|^2 =  1.846E-11

      iter #   7 total cpu time : 27257.7 secs   av.it.:  17.9
      thresh= 4.296E-07 alpha_mix =  0.700 |ddv_scf|^2 =  5.967E-13

      iter #   8 total cpu time : 27282.4 secs   av.it.:  18.0
      thresh= 7.724E-08 alpha_mix =  0.700 |ddv_scf|^2 =  5.454E-14

      iter #   9 total cpu time : 27304.3 secs   av.it.:  18.0
      thresh= 2.335E-08 alpha_mix =  0.700 |ddv_scf|^2 =  4.310E-15

      iter #  10 total cpu time : 27328.2 secs   av.it.:  17.9
      thresh= 6.565E-09 alpha_mix =  0.700 |ddv_scf|^2 =  1.341E-16

      iter #  11 total cpu time : 27349.9 secs   av.it.:  18.4
      thresh= 1.158E-09 alpha_mix =  0.700 |ddv_scf|^2 =  1.326E-17

      iter #  12 total cpu time : 27371.7 secs   av.it.:  18.6
      thresh= 3.641E-10 alpha_mix =  0.700 |ddv_scf|^2 =  4.998E-18

      iter #  13 total cpu time : 27393.2 secs   av.it.:  17.9
      thresh= 2.236E-10 alpha_mix =  0.700 |ddv_scf|^2 =  4.206E-19

      iter #  14 total cpu time : 27415.1 secs   av.it.:  18.0
      thresh= 6.485E-11 alpha_mix =  0.700 |ddv_scf|^2 =  5.697E-20

      iter #  15 total cpu time : 27436.8 secs   av.it.:  17.9
      thresh= 2.387E-11 alpha_mix =  0.700 |ddv_scf|^2 =  3.082E-21

      iter #  16 total cpu time : 27458.1 secs   av.it.:  18.0
      thresh= 5.551E-12 alpha_mix =  0.700 |ddv_scf|^2 =  1.559E-22

      iter #  17 total cpu time : 27479.6 secs   av.it.:  18.0
      thresh= 1.249E-12 alpha_mix =  0.700 |ddv_scf|^2 =  1.011E-23

     End of self-consistent calculation

     Convergence has been achieved 


     Representation #   7 mode #   7

     Self-consistent Calculation

      iter #   1 total cpu time : 27494.1 secs   av.it.:  10.2
      thresh= 1.000E-02 alpha_mix =  0.700 |ddv_scf|^2 =  1.358E-06

      iter #   2 total cpu time : 27527.9 secs   av.it.:  17.9
      thresh= 1.165E-04 alpha_mix =  0.700 |ddv_scf|^2 =  1.734E-07

      iter #   3 total cpu time : 27549.2 secs   av.it.:  17.6
      thresh= 4.164E-05 alpha_mix =  0.700 |ddv_scf|^2 =  1.589E-08

      iter #   4 total cpu time : 27573.6 secs   av.it.:  17.8
      thresh= 1.261E-05 alpha_mix =  0.700 |ddv_scf|^2 =  3.328E-09

      iter #   5 total cpu time : 27594.3 secs   av.it.:  17.1
      thresh= 5.769E-06 alpha_mix =  0.700 |ddv_scf|^2 =  1.963E-10

      iter #   6 total cpu time : 27615.3 secs   av.it.:  17.9
      thresh= 1.401E-06 alpha_mix =  0.700 |ddv_scf|^2 =  1.335E-11

      iter #   7 total cpu time : 27636.0 secs   av.it.:  17.5
      thresh= 3.653E-07 alpha_mix =  0.700 |ddv_scf|^2 =  7.837E-13

      iter #   8 total cpu time : 27657.2 secs   av.it.:  18.0
      thresh= 8.853E-08 alpha_mix =  0.700 |ddv_scf|^2 =  8.228E-14

      iter #   9 total cpu time : 27679.5 secs   av.it.:  18.0
      thresh= 2.869E-08 alpha_mix =  0.700 |ddv_scf|^2 =  2.766E-15

      iter #  10 total cpu time : 27701.4 secs   av.it.:  18.4
      thresh= 5.259E-09 alpha_mix =  0.700 |ddv_scf|^2 =  1.234E-15

      iter #  11 total cpu time : 27722.3 secs   av.it.:  17.6
      thresh= 3.513E-09 alpha_mix =  0.700 |ddv_scf|^2 =  5.147E-17

      iter #  12 total cpu time : 27743.3 secs   av.it.:  17.6
      thresh= 7.174E-10 alpha_mix =  0.700 |ddv_scf|^2 =  2.488E-18

      iter #  13 total cpu time : 27764.6 secs   av.it.:  18.0
      thresh= 1.577E-10 alpha_mix =  0.700 |ddv_scf|^2 =  4.149E-19

      iter #  14 total cpu time : 27786.1 secs   av.it.:  17.9
      thresh= 6.441E-11 alpha_mix =  0.700 |ddv_scf|^2 =  2.953E-20

      iter #  15 total cpu time : 27807.1 secs   av.it.:  17.9
      thresh= 1.718E-11 alpha_mix =  0.700 |ddv_scf|^2 =  9.426E-22

      iter #  16 total cpu time : 27828.8 secs   av.it.:  18.4
      thresh= 3.070E-12 alpha_mix =  0.700 |ddv_scf|^2 =  1.452E-22

      iter #  17 total cpu time : 27850.5 secs   av.it.:  18.0
      thresh= 1.205E-12 alpha_mix =  0.700 |ddv_scf|^2 =  5.077E-23

     End of self-consistent calculation

     Convergence has been achieved 


     Representation #   8 mode #   8

     Self-consistent Calculation

      iter #   1 total cpu time : 27863.6 secs   av.it.:   9.1
      thresh= 1.000E-02 alpha_mix =  0.700 |ddv_scf|^2 =  1.232E-06

      iter #   2 total cpu time : 27884.6 secs   av.it.:  17.7
      thresh= 1.110E-04 alpha_mix =  0.700 |ddv_scf|^2 =  6.486E-07

      iter #   3 total cpu time : 27905.4 secs   av.it.:  17.0
      thresh= 8.053E-05 alpha_mix =  0.700 |ddv_scf|^2 =  1.592E-08

      iter #   4 total cpu time : 27926.3 secs   av.it.:  17.5
      thresh= 1.262E-05 alpha_mix =  0.700 |ddv_scf|^2 =  5.833E-09

      iter #   5 total cpu time : 27947.3 secs   av.it.:  17.1
      thresh= 7.637E-06 alpha_mix =  0.700 |ddv_scf|^2 =  2.469E-10

      iter #   6 total cpu time : 27968.3 secs   av.it.:  17.6
      thresh= 1.571E-06 alpha_mix =  0.700 |ddv_scf|^2 =  3.422E-12

      iter #   7 total cpu time : 27990.0 secs   av.it.:  18.0
      thresh= 1.850E-07 alpha_mix =  0.700 |ddv_scf|^2 =  2.161E-13

      iter #   8 total cpu time : 28011.6 secs   av.it.:  18.0
      thresh= 4.648E-08 alpha_mix =  0.700 |ddv_scf|^2 =  1.008E-14

      iter #   9 total cpu time : 28033.3 secs   av.it.:  17.9
      thresh= 1.004E-08 alpha_mix =  0.700 |ddv_scf|^2 =  2.412E-15

      iter #  10 total cpu time : 28054.2 secs   av.it.:  17.7
      thresh= 4.912E-09 alpha_mix =  0.700 |ddv_scf|^2 =  9.373E-17

      iter #  11 total cpu time : 28075.7 secs   av.it.:  18.0
      thresh= 9.682E-10 alpha_mix =  0.700 |ddv_scf|^2 =  5.274E-17

      iter #  12 total cpu time : 28096.1 secs   av.it.:  17.0
      thresh= 7.262E-10 alpha_mix =  0.700 |ddv_scf|^2 =  1.565E-18

      iter #  13 total cpu time : 28130.1 secs   av.it.:  18.0
      thresh= 1.251E-10 alpha_mix =  0.700 |ddv_scf|^2 =  9.658E-20

      iter #  14 total cpu time : 28157.9 secs   av.it.:  17.8
      thresh= 3.108E-11 alpha_mix =  0.700 |ddv_scf|^2 =  6.823E-21

      iter #  15 total cpu time : 28182.3 secs   av.it.:  18.0
      thresh= 8.260E-12 alpha_mix =  0.700 |ddv_scf|^2 =  9.608E-22

      iter #  16 total cpu time : 28203.7 secs   av.it.:  17.9
      thresh= 3.100E-12 alpha_mix =  0.700 |ddv_scf|^2 =  1.391E-22

      iter #  17 total cpu time : 28224.8 secs   av.it.:  17.5
      thresh= 1.179E-12 alpha_mix =  0.700 |ddv_scf|^2 =  6.425E-24

     End of self-consistent calculation

     Convergence has been achieved 


     Representation #   9 mode #   9

     Self-consistent Calculation

      iter #   1 total cpu time : 28239.6 secs   av.it.:  10.9
      thresh= 1.000E-02 alpha_mix =  0.700 |ddv_scf|^2 =  3.382E-06

      iter #   2 total cpu time : 28260.5 secs   av.it.:  18.0
      thresh= 1.839E-04 alpha_mix =  0.700 |ddv_scf|^2 =  1.804E-06

      iter #   3 total cpu time : 28281.3 secs   av.it.:  17.0
      thresh= 1.343E-04 alpha_mix =  0.700 |ddv_scf|^2 =  9.887E-09

      iter #   4 total cpu time : 28303.0 secs   av.it.:  18.0
      thresh= 9.944E-06 alpha_mix =  0.700 |ddv_scf|^2 =  3.234E-09

      iter #   5 total cpu time : 28323.9 secs   av.it.:  17.6
      thresh= 5.687E-06 alpha_mix =  0.700 |ddv_scf|^2 =  3.342E-10

      iter #   6 total cpu time : 28344.7 secs   av.it.:  17.7
      thresh= 1.828E-06 alpha_mix =  0.700 |ddv_scf|^2 =  2.220E-11

      iter #   7 total cpu time : 28365.8 secs   av.it.:  17.9
      thresh= 4.712E-07 alpha_mix =  0.700 |ddv_scf|^2 =  6.162E-13

      iter #   8 total cpu time : 28387.6 secs   av.it.:  18.0
      thresh= 7.850E-08 alpha_mix =  0.700 |ddv_scf|^2 =  1.154E-13

      iter #   9 total cpu time : 28408.7 secs   av.it.:  18.0
      thresh= 3.398E-08 alpha_mix =  0.700 |ddv_scf|^2 =  5.086E-15

      iter #  10 total cpu time : 28430.0 secs   av.it.:  18.0
      thresh= 7.132E-09 alpha_mix =  0.700 |ddv_scf|^2 =  1.285E-16

      iter #  11 total cpu time : 28452.0 secs   av.it.:  18.7
      thresh= 1.133E-09 alpha_mix =  0.700 |ddv_scf|^2 =  1.534E-17

      iter #  12 total cpu time : 28474.1 secs   av.it.:  18.6
      thresh= 3.917E-10 alpha_mix =  0.700 |ddv_scf|^2 =  4.003E-18

      iter #  13 total cpu time : 28495.4 secs   av.it.:  18.0
      thresh= 2.001E-10 alpha_mix =  0.700 |ddv_scf|^2 =  3.456E-19

      iter #  14 total cpu time : 28517.0 secs   av.it.:  17.9
      thresh= 5.879E-11 alpha_mix =  0.700 |ddv_scf|^2 =  7.316E-20

      iter #  15 total cpu time : 28538.0 secs   av.it.:  17.9
      thresh= 2.705E-11 alpha_mix =  0.700 |ddv_scf|^2 =  3.967E-21

      iter #  16 total cpu time : 28559.2 secs   av.it.:  17.9
      thresh= 6.298E-12 alpha_mix =  0.700 |ddv_scf|^2 =  1.604E-22

      iter #  17 total cpu time : 28581.2 secs   av.it.:  18.0
      thresh= 1.267E-12 alpha_mix =  0.700 |ddv_scf|^2 =  1.555E-23

     End of self-consistent calculation

     Convergence has been achieved 
 
     Number of q in the star =    6
     List of q in the star:
          1   0.250000000   0.577350269   0.000000000
          2  -0.250000000   0.577350269   0.000000000
          3  -0.375000000  -0.505181486   0.000000000
          4   0.625000000  -0.072168784   0.000000000
          5  -0.625000000  -0.072168784   0.000000000
          6   0.375000000  -0.505181486   0.000000000

     Diagonalizing the dynamical matrix

     q = (    0.250000000   0.577350269   0.000000000 ) 

 **************************************************************************
     freq (    1) =       3.752077 [THz] =     125.155819 [cm-1]
     freq (    2) =       3.990008 [THz] =     133.092338 [cm-1]
     freq (    3) =       4.631129 [THz] =     154.477846 [cm-1]
     freq (    4) =       5.971097 [THz] =     199.174359 [cm-1]
     freq (    5) =       6.045770 [THz] =     201.665195 [cm-1]
     freq (    6) =       6.196942 [THz] =     206.707726 [cm-1]
     freq (    7) =       8.445416 [THz] =     281.708764 [cm-1]
     freq (    8) =       8.923725 [THz] =     297.663435 [cm-1]
     freq (    9) =       9.135912 [THz] =     304.741237 [cm-1]
 **************************************************************************

     Mode symmetry, C_s (m)     point group:

     freq (   1-   1) =        125.2  [cm-1]   --> A'                 
     freq (   2-   2) =        133.1  [cm-1]   --> A''                
     freq (   3-   3) =        154.5  [cm-1]   --> A'                 
     freq (   4-   4) =        199.2  [cm-1]   --> A''                
     freq (   5-   5) =        201.7  [cm-1]   --> A''                
     freq (   6-   6) =        206.7  [cm-1]   --> A'                 
     freq (   7-   7) =        281.7  [cm-1]   --> A'                 
     freq (   8-   8) =        297.7  [cm-1]   --> A''                
     freq (   9-   9) =        304.7  [cm-1]   --> A'                 
 
     init_run     :      4.56s CPU      4.89s WALL (       9 calls)
     electrons    :    216.34s CPU    223.14s WALL (       9 calls)

     Called by init_run:
     wfcinit      :      0.00s CPU      0.09s WALL (       9 calls)
     potinit      :      0.54s CPU      0.75s WALL (       9 calls)
     hinit0       :      2.70s CPU      2.71s WALL (       9 calls)

     Called by electrons:
     c_bands      :    216.33s CPU    223.13s WALL (       9 calls)
     v_of_rho     :      0.13s CPU      0.14s WALL (      10 calls)
     newd         :      0.28s CPU      0.29s WALL (      10 calls)
     PAW_pot      :      0.45s CPU      0.47s WALL (      10 calls)

     Called by c_bands:
     init_us_2    :     45.07s CPU     45.95s WALL (   74224 calls)
     cegterg      :    187.70s CPU    191.64s WALL (     700 calls)

     Called by *egterg:
     cdiaghg      :     36.66s CPU     37.08s WALL (   11235 calls)
     h_psi        :  18374.14s CPU  18840.10s WALL ( 2173713 calls)
     s_psi        :   1080.69s CPU   1097.32s WALL ( 4404794 calls)
     g_psi        :      1.32s CPU      1.33s WALL (   10535 calls)

     Called by h_psi:
     h_psi:calbec :   1053.22s CPU   1077.78s WALL ( 2173713 calls)
     vloc_psi     :  16651.70s CPU  17081.98s WALL ( 2173713 calls)
     add_vuspsi   :    580.04s CPU    590.63s WALL ( 2173713 calls)

     General routines
     calbec       :   1874.95s CPU   1912.89s WALL ( 4498156 calls)
     fft          :     28.60s CPU     29.02s WALL (   28063 calls)
     ffts         :      4.54s CPU      4.64s WALL (    4149 calls)
     fftw         :  17334.82s CPU  17803.13s WALL (60547046 calls)
     davcio       :     78.07s CPU    668.85s WALL (  370336 calls)
 
     Parallel routines
     fft_scatt_xy :   1946.74s CPU   1990.84s WALL (60579258 calls)
     fft_scatt_yz :   7012.04s CPU   7203.93s WALL (60579258 calls)
 
     PHONON       :      7h33m CPU      7h56m WALL

     INITIALIZATION: 
     phq_setup    :      0.34s CPU      0.49s WALL (      10 calls)
     phq_init     :     80.75s CPU     85.75s WALL (      10 calls)
 
     phq_init     :     80.75s CPU     85.75s WALL (      10 calls)
     set_drhoc    :      9.02s CPU      9.05s WALL (      30 calls)
     init_vloc    :      0.48s CPU      0.48s WALL (      10 calls)
     init_us_1    :      0.91s CPU      0.91s WALL (      10 calls)
     newd         :      0.28s CPU      0.29s WALL (      10 calls)
     dvanqq       :      8.44s CPU      8.49s WALL (      10 calls)
     drho         :     54.41s CPU     57.57s WALL (      10 calls)
 
     DYNAMICAL MATRIX:
     dynmat0      :     11.01s CPU     11.75s WALL (      10 calls)
     phqscf       :  26801.17s CPU  28120.30s WALL (      10 calls)
     dynmatrix    :      0.05s CPU      0.22s WALL (      10 calls)
 
     phqscf       :  26801.17s CPU  28120.30s WALL (      10 calls)
     solve_linter :  26770.29s CPU  28079.51s WALL (      87 calls)
     drhodv       :     25.81s CPU     31.93s WALL (      87 calls)
 
     dynmat0      :     11.01s CPU     11.75s WALL (      10 calls)
     dynmat_us    :      4.30s CPU      4.96s WALL (      10 calls)
     d2ionq       :      0.05s CPU      0.05s WALL (      10 calls)
     dynmatcc     :      6.36s CPU      6.38s WALL (      10 calls)
 
     dynmat_us    :      4.30s CPU      4.96s WALL (      10 calls)
     addusdynmat  :      0.00s CPU      0.00s WALL (      10 calls)
 
     phqscf       :  26801.17s CPU  28120.30s WALL (      10 calls)
     solve_linter :  26770.29s CPU  28079.51s WALL (      87 calls)
 
     solve_linter :  26770.29s CPU  28079.51s WALL (      87 calls)
     dvqpsi_us    :     67.05s CPU     68.55s WALL (    3276 calls)
     ortho        :    125.85s CPU    127.73s WALL (   69282 calls)
     cgsolve      :  22811.23s CPU  23350.46s WALL (   69282 calls)
     incdrhoscf   :   1299.94s CPU   1344.62s WALL (   69282 calls)
     addusddens   :    134.84s CPU    139.04s WALL (    1854 calls)
     vpsifft      :   1263.03s CPU   1311.69s WALL (   65712 calls)
     dv_of_drho   :     20.47s CPU     20.80s WALL (    1851 calls)
     mix_pot      :     18.31s CPU     70.67s WALL (    1783 calls)
     psymdvscf    :    143.89s CPU    145.19s WALL (    1767 calls)
     newdq        :    134.92s CPU    135.44s WALL (    1783 calls)
     adddvscf     :     97.20s CPU     98.49s WALL (   66027 calls)
     drhodvus     :      1.24s CPU      2.29s WALL (      87 calls)
 
     dvqpsi_us    :     67.05s CPU     68.55s WALL (    3276 calls)
     dvqpsi_us_on :     14.86s CPU     14.99s WALL (    3276 calls)
 
     cgsolve      :  22811.23s CPU  23350.46s WALL (   69282 calls)
     ch_psi       :  21776.02s CPU  22288.44s WALL ( 2161778 calls)
 
     ch_psi       :  21776.02s CPU  22288.44s WALL ( 2161778 calls)
     h_psi        :  18374.14s CPU  18840.10s WALL ( 2173713 calls)
     last         :   2557.15s CPU   2593.65s WALL ( 2161778 calls)
 
     h_psi        :  18374.14s CPU  18840.10s WALL ( 2173713 calls)
     add_vuspsi   :    580.04s CPU    590.63s WALL ( 2173713 calls)
 
     incdrhoscf   :   1299.94s CPU   1344.62s WALL (   69282 calls)
     addusdbec    :     50.95s CPU     52.03s WALL (   72495 calls)
 
     drhodvus     :      1.24s CPU      2.29s WALL (      87 calls)
 
      General routines
     calbec       :   1874.95s CPU   1912.89s WALL ( 4498156 calls)
     fft          :     28.60s CPU     29.02s WALL (   28063 calls)
     ffts         :      4.54s CPU      4.64s WALL (    4149 calls)
     fftw         :  17334.82s CPU  17803.13s WALL (60547046 calls)
     davcio       :     78.07s CPU    668.85s WALL (  370336 calls)
     write_rec    :      2.95s CPU     38.74s WALL (    1870 calls)
 
 
     PHONON       :      7h33m CPU      7h56m WALL

 
   This run was terminated on:   8:37:12  22Mar2022            

=------------------------------------------------------------------------------=
   JOB DONE.
=------------------------------------------------------------------------------=
