   2  432
1 1
    10.913867891947685    -0.000000000000000     0.000000000000001
    -0.000000000000000    10.913867891947707     0.000000000000000
     0.000000000000001     0.000000000000000    10.913867891947707
1 2
     0.334614943125468     0.075558337045427     0.075558337045427
    -0.075558337045427    -0.141516998976750    -0.118990338147814
    -0.075558337045426    -0.118990338147814    -0.141516998976750
1 3
     0.108546541219099     0.016319052237961     0.016319052237961
    -0.016319052237961     0.001309731988168    -0.009735446163376
    -0.016319052237961    -0.009735446163376     0.001309731988168
1 4
     0.062392974504272    -0.000000000000000     0.000000000000000
    -0.000000000000000     0.002329910296725    -0.008149759206566
     0.000000000000000    -0.008149759206566     0.002329910296725
1 5
     0.108546541219099    -0.016319052237961    -0.016319052237961
     0.016319052237961     0.001309731988168    -0.009735446163376
     0.016319052237961    -0.009735446163376     0.001309731988168
1 6
     0.334614943125468    -0.075558337045427    -0.075558337045426
     0.075558337045427    -0.141516998976750    -0.118990338147814
     0.075558337045427    -0.118990338147814    -0.141516998976750
1 7
    -0.141516998976750    -0.075558337045427    -0.118990338147814
     0.075558337045426     0.334614943125468     0.075558337045426
    -0.118990338147814    -0.075558337045427    -0.141516998976750
1 8
    -0.016796002309157     0.029442158601655    -0.013368207251722
     0.029442158601655    -0.016796002309157    -0.013368207251722
    -0.007741670205473    -0.007741670205473    -0.002800326177479
1 9
    -0.004035641724212     0.009630440806370    -0.007654696071387
     0.010245800482698    -0.001305944383789    -0.002529762898043
    -0.005315586839222    -0.003535268740890    -0.000650809951020
1 10
    -0.004035641724212     0.007654696071387    -0.009630440806370
     0.005315586839222    -0.000650809951020    -0.003535268740890
    -0.010245800482698    -0.002529762898043    -0.001305944383789
1 11
    -0.016796002309157     0.013368207251722    -0.029442158601655
     0.007741670205473    -0.002800326177479    -0.007741670205473
    -0.029442158601655    -0.013368207251722    -0.016796002309157
1 12
    -0.141516998976750     0.118990338147814     0.075558337045427
     0.118990338147814    -0.141516998976750    -0.075558337045426
    -0.075558337045427     0.075558337045427     0.334614943125468
1 13
     0.001309731988168    -0.016319052237961    -0.009735446163376
     0.016319052237961     0.108546541219099     0.016319052237961
    -0.009735446163376    -0.016319052237961     0.001309731988168
1 14
    -0.001305944383789     0.010245800482698    -0.002529762898043
     0.009630440806370    -0.004035641724212    -0.007654696071387
    -0.003535268740890    -0.005315586839222    -0.000650809951020
1 15
    -0.000677768397052     0.004294789812232    -0.004294789812232
     0.004294789812232    -0.000677768397052    -0.004294789812232
    -0.004294789812232    -0.004294789812232    -0.000677768397052
1 16
    -0.001305944383789     0.002529762898043    -0.010245800482698
     0.003535268740890    -0.000650809951020    -0.005315586839222
    -0.009630440806370    -0.007654696071387    -0.004035641724212
1 17
     0.001309731988168     0.009735446163376     0.016319052237961
     0.009735446163376     0.001309731988168    -0.016319052237961
    -0.016319052237961     0.016319052237961     0.108546541219099
1 18
    -0.002800326177479     0.013368207251722    -0.013368207251722
     0.007741670205473    -0.016796002309157    -0.029442158601655
    -0.007741670205473    -0.029442158601655    -0.016796002309157
1 19
     0.002329910296725    -0.000000000000000    -0.008149759206566
    -0.000000000000000     0.062392974504272    -0.000000000000000
    -0.008149759206566    -0.000000000000000     0.002329910296725
1 20
    -0.000650809951020     0.005315586839222    -0.003535268740890
     0.007654696071387    -0.004035641724212    -0.009630440806370
    -0.002529762898043    -0.010245800482698    -0.001305944383789
1 21
    -0.000650809951020     0.003535268740890    -0.005315586839222
     0.002529762898043    -0.001305944383789    -0.010245800482698
    -0.007654696071387    -0.009630440806370    -0.004035641724212
1 22
     0.002329910296725     0.008149759206566     0.000000000000000
     0.008149759206566     0.002329910296725     0.000000000000000
     0.000000000000000     0.000000000000000     0.062392974504272
1 23
    -0.000650809951020     0.002529762898043    -0.007654696071387
     0.003535268740890    -0.001305944383789    -0.009630440806370
    -0.005315586839222    -0.010245800482698    -0.004035641724212
1 24
    -0.000650809951020     0.007654696071387    -0.002529762898043
     0.005315586839222    -0.004035641724212    -0.010245800482698
    -0.003535268740890    -0.009630440806370    -0.001305944383789
1 25
     0.001309731988168     0.016319052237961    -0.009735446163376
    -0.016319052237961     0.108546541219099    -0.016319052237961
    -0.009735446163376     0.016319052237961     0.001309731988168
1 26
    -0.002800326177479     0.007741670205473    -0.007741670205473
     0.013368207251722    -0.016796002309157    -0.029442158601655
    -0.013368207251722    -0.029442158601655    -0.016796002309157
1 27
     0.001309731988168     0.009735446163376    -0.016319052237961
     0.009735446163376     0.001309731988168     0.016319052237961
     0.016319052237961    -0.016319052237961     0.108546541219099
1 28
    -0.001305944383789     0.003535268740890    -0.009630440806370
     0.002529762898043    -0.000650809951020    -0.007654696071387
    -0.010245800482698    -0.005315586839222    -0.004035641724212
1 29
    -0.000677768397052     0.004294789812232    -0.004294789812232
     0.004294789812232    -0.000677768397052    -0.004294789812232
    -0.004294789812232    -0.004294789812232    -0.000677768397052
1 30
    -0.001305944383789     0.009630440806370    -0.003535268740890
     0.010245800482698    -0.004035641724212    -0.005315586839222
    -0.002529762898043    -0.007654696071387    -0.000650809951020
1 31
    -0.141516998976750     0.075558337045426    -0.118990338147814
    -0.075558337045427     0.334614943125468    -0.075558337045427
    -0.118990338147814     0.075558337045426    -0.141516998976750
1 32
    -0.141516998976750     0.118990338147814    -0.075558337045427
     0.118990338147814    -0.141516998976750     0.075558337045427
     0.075558337045427    -0.075558337045426     0.334614943125468
1 33
    -0.016796002309157     0.007741670205473    -0.029442158601655
     0.013368207251722    -0.002800326177479    -0.013368207251722
    -0.029442158601655    -0.007741670205473    -0.016796002309157
1 34
    -0.004035641724212     0.005315586839222    -0.010245800482698
     0.007654696071387    -0.000650809951020    -0.002529762898043
    -0.009630440806370    -0.003535268740890    -0.001305944383789
1 35
    -0.004035641724212     0.010245800482698    -0.005315586839222
     0.009630440806370    -0.001305944383789    -0.003535268740890
    -0.007654696071387    -0.002529762898043    -0.000650809951020
1 36
    -0.016796002309157     0.029442158601655    -0.007741670205473
     0.029442158601655    -0.016796002309157    -0.007741670205473
    -0.013368207251722    -0.013368207251722    -0.002800326177479
1 37
    -0.141516998976750    -0.118990338147814    -0.075558337045426
    -0.118990338147814    -0.141516998976750    -0.075558337045426
     0.075558337045427     0.075558337045427     0.334614943125468
1 38
    -0.016796002309157    -0.013368207251722     0.029442158601655
    -0.007741670205473    -0.002800326177479    -0.007741670205473
     0.029442158601655    -0.013368207251722    -0.016796002309157
1 39
    -0.004035641724212    -0.007654696071387     0.009630440806370
    -0.005315586839222    -0.000650809951020    -0.003535268740890
     0.010245800482698    -0.002529762898043    -0.001305944383789
1 40
    -0.004035641724212    -0.009630440806370     0.007654696071387
    -0.010245800482698    -0.001305944383789    -0.002529762898043
     0.005315586839222    -0.003535268740890    -0.000650809951020
1 41
    -0.016796002309157    -0.029442158601655     0.013368207251722
    -0.029442158601655    -0.016796002309157    -0.013368207251722
     0.007741670205473    -0.007741670205473    -0.002800326177479
1 42
    -0.141516998976750     0.075558337045427     0.118990338147814
    -0.075558337045426     0.334614943125468     0.075558337045426
     0.118990338147814    -0.075558337045427    -0.141516998976750
1 43
    -0.002800326177479    -0.007741670205473    -0.007741670205473
    -0.013368207251722    -0.016796002309157     0.029442158601655
    -0.013368207251722     0.029442158601655    -0.016796002309157
1 44
    -0.004536980432073     0.000343742284004     0.000343742284004
     0.000343742284004    -0.004536980432073     0.000343742284004
     0.000343742284004     0.000343742284004    -0.004536980432073
1 45
    -0.003594583869447     0.000000000000000     0.000000000000000
     0.000000000000000    -0.003156531218502     0.000611117035640
     0.000000000000000     0.000611117035640    -0.003156531218502
1 46
    -0.004536980432073    -0.000343742284004    -0.000343742284004
    -0.000343742284004    -0.004536980432073     0.000343742284004
    -0.000343742284004     0.000343742284004    -0.004536980432073
1 47
    -0.002800326177479     0.007741670205473     0.007741670205473
     0.013368207251722    -0.016796002309157     0.029442158601655
     0.013368207251722     0.029442158601655    -0.016796002309157
1 48
    -0.005833637492074     0.000000000000000     0.000000000000000
     0.000000000000000    -0.016822430425104    -0.000000000000000
     0.000000000000000    -0.000000000000000    -0.016822430425104
1 49
    -0.000650809951020    -0.005315586839222    -0.003535268740890
    -0.007654696071387    -0.004035641724212     0.009630440806370
    -0.002529762898043     0.010245800482698    -0.001305944383789
1 50
    -0.003156531218502     0.000000000000000     0.000611117035640
     0.000000000000000    -0.003594583869447    -0.000000000000000
     0.000611117035640    -0.000000000000000    -0.003156531218502
1 51
    -0.003156531218502    -0.000611117035640     0.000000000000000
    -0.000611117035640    -0.003156531218502    -0.000000000000000
     0.000000000000000    -0.000000000000000    -0.003594583869447
1 52
    -0.000650809951020     0.003535268740890     0.005315586839222
     0.002529762898043    -0.001305944383789     0.010245800482698
     0.007654696071387     0.009630440806370    -0.004035641724212
1 53
    -0.003057713045831    -0.000905627010005    -0.001401043698573
    -0.000905627010005    -0.006834900694234     0.000193216927959
     0.001401043698573    -0.000193216927959    -0.006362553364402
1 54
    -0.003057713045831     0.001401043698573     0.000905627010005
    -0.001401043698573    -0.006362553364402    -0.000193216927959
     0.000905627010005     0.000193216927959    -0.006834900694234
1 55
    -0.001305944383789    -0.010245800482698    -0.002529762898043
    -0.009630440806370    -0.004035641724212     0.007654696071387
    -0.003535268740890     0.005315586839222    -0.000650809951020
1 56
    -0.004536980432073    -0.000343742284004     0.000343742284004
    -0.000343742284004    -0.004536980432073    -0.000343742284004
     0.000343742284004    -0.000343742284004    -0.004536980432073
1 57
    -0.001305944383789     0.002529762898043     0.010245800482698
     0.003535268740890    -0.000650809951020     0.005315586839222
     0.009630440806370     0.007654696071387    -0.004035641724212
1 58
    -0.002498745135303    -0.000705692567624    -0.000210717820794
    -0.000705692567624    -0.002498745135303    -0.000210717820794
     0.000210717820794     0.000210717820794    -0.003701710546797
1 59
    -0.002061576367834    -0.000050292969812     0.000050292969812
    -0.000259154635305    -0.002985234600759    -0.000082731493399
     0.000259154635305    -0.000082731493399    -0.002985234600759
1 60
    -0.002498745135303     0.000210717820794     0.000705692567624
    -0.000210717820794    -0.003701710546797     0.000210717820794
     0.000705692567624    -0.000210717820794    -0.002498745135303
1 61
    -0.016796002309157    -0.029442158601655    -0.013368207251722
    -0.029442158601655    -0.016796002309157     0.013368207251722
    -0.007741670205473     0.007741670205473    -0.002800326177479
1 62
    -0.016796002309157     0.013368207251722     0.029442158601655
     0.007741670205473    -0.002800326177479     0.007741670205473
     0.029442158601655     0.013368207251722    -0.016796002309157
1 63
    -0.006834900694234    -0.000905627010005     0.000193216927959
    -0.000905627010005    -0.003057713045831    -0.001401043698573
    -0.000193216927959     0.001401043698573    -0.006362553364402
1 64
    -0.002985234600759    -0.000259154635305    -0.000082731493399
    -0.000050292969812    -0.002061576367834     0.000050292969812
    -0.000082731493399     0.000259154635305    -0.002985234600759
1 65
    -0.002985234600759     0.000082731493399     0.000259154635305
     0.000082731493399    -0.002985234600759     0.000259154635305
     0.000050292969812     0.000050292969812    -0.002061576367834
1 66
    -0.006834900694234    -0.000193216927959     0.000905627010005
     0.000193216927959    -0.006362553364402     0.001401043698573
     0.000905627010005    -0.001401043698573    -0.003057713045831
1 67
     0.334614943125468    -0.075558337045427     0.075558337045427
     0.075558337045426    -0.141516998976750     0.118990338147814
    -0.075558337045427     0.118990338147814    -0.141516998976750
1 68
    -0.016822430425104     0.000000000000000     0.000000000000000
     0.000000000000000    -0.005833637492074    -0.000000000000000
     0.000000000000000    -0.000000000000000    -0.016822430425104
1 69
    -0.006362553364402    -0.001401043698573    -0.000193216927959
     0.001401043698573    -0.003057713045831     0.000905627010005
     0.000193216927959     0.000905627010005    -0.006834900694234
1 70
    -0.003701710546797    -0.000210717820794     0.000210717820794
     0.000210717820794    -0.002498745135303     0.000705692567624
    -0.000210717820794     0.000705692567624    -0.002498745135303
1 71
    -0.006362553364402     0.000193216927959     0.001401043698573
    -0.000193216927959    -0.006834900694234     0.000905627010005
    -0.001401043698573     0.000905627010005    -0.003057713045831
1 72
    -0.016822430425104     0.000000000000000     0.000000000000000
     0.000000000000000    -0.016822430425104    -0.000000000000000
     0.000000000000000    -0.000000000000000    -0.005833637492074
1 73
     0.001309731988168    -0.009735446163376    -0.016319052237961
    -0.009735446163376     0.001309731988168    -0.016319052237961
     0.016319052237961     0.016319052237961     0.108546541219099
1 74
    -0.001305944383789    -0.002529762898043     0.010245800482698
    -0.003535268740890    -0.000650809951020    -0.005315586839222
     0.009630440806370    -0.007654696071387    -0.004035641724212
1 75
    -0.000677768397052    -0.004294789812232     0.004294789812232
    -0.004294789812232    -0.000677768397052    -0.004294789812232
     0.004294789812232    -0.004294789812232    -0.000677768397052
1 76
    -0.001305944383789    -0.010245800482698     0.002529762898043
    -0.009630440806370    -0.004035641724212    -0.007654696071387
     0.003535268740890    -0.005315586839222    -0.000650809951020
1 77
     0.001309731988168     0.016319052237961     0.009735446163376
    -0.016319052237961     0.108546541219099     0.016319052237961
     0.009735446163376    -0.016319052237961     0.001309731988168
1 78
    -0.002800326177479    -0.013368207251722     0.013368207251722
    -0.007741670205473    -0.016796002309157    -0.029442158601655
     0.007741670205473    -0.029442158601655    -0.016796002309157
1 79
    -0.000650809951020    -0.003535268740890    -0.005315586839222
    -0.002529762898043    -0.001305944383789     0.010245800482698
    -0.007654696071387     0.009630440806370    -0.004035641724212
1 80
    -0.003156531218502     0.000611117035640     0.000000000000000
     0.000611117035640    -0.003156531218502    -0.000000000000000
     0.000000000000000    -0.000000000000000    -0.003594583869447
1 81
    -0.003156531218502     0.000000000000000    -0.000611117035640
     0.000000000000000    -0.003594583869447    -0.000000000000000
    -0.000611117035640    -0.000000000000000    -0.003156531218502
1 82
    -0.000650809951020     0.005315586839222     0.003535268740890
     0.007654696071387    -0.004035641724212     0.009630440806370
     0.002529762898043     0.010245800482698    -0.001305944383789
1 83
    -0.003057713045831    -0.001401043698573    -0.000905627010005
     0.001401043698573    -0.006362553364402    -0.000193216927959
    -0.000905627010005     0.000193216927959    -0.006834900694234
1 84
    -0.003057713045831     0.000905627010005     0.001401043698573
     0.000905627010005    -0.006834900694234     0.000193216927959
    -0.001401043698573    -0.000193216927959    -0.006362553364402
1 85
    -0.000677768397052    -0.004294789812232    -0.004294789812232
    -0.004294789812232    -0.000677768397052     0.004294789812232
    -0.004294789812232     0.004294789812232    -0.000677768397052
1 86
    -0.003594583869447     0.000000000000000     0.000000000000000
     0.000000000000000    -0.003156531218502    -0.000611117035640
     0.000000000000000    -0.000611117035640    -0.003156531218502
1 87
    -0.000677768397052     0.004294789812232     0.004294789812232
     0.004294789812232    -0.000677768397052     0.004294789812232
     0.004294789812232     0.004294789812232    -0.000677768397052
1 88
    -0.002061576367834    -0.000259154635305    -0.000259154635305
    -0.000050292969812    -0.002985234600759     0.000082731493399
    -0.000050292969812     0.000082731493399    -0.002985234600759
1 89
    -0.002156682229904     0.000000000000000     0.000000000000000
     0.000000000000000    -0.003264365002633    -0.000000000000000
     0.000000000000000    -0.000000000000000    -0.003264365002633
1 90
    -0.002061576367834     0.000259154635305     0.000259154635305
     0.000050292969812    -0.002985234600759     0.000082731493399
     0.000050292969812     0.000082731493399    -0.002985234600759
1 91
    -0.004035641724212    -0.009630440806370    -0.007654696071387
    -0.010245800482698    -0.001305944383789     0.002529762898043
    -0.005315586839222     0.003535268740890    -0.000650809951020
1 92
    -0.004035641724212     0.007654696071387     0.009630440806370
     0.005315586839222    -0.000650809951020     0.003535268740890
     0.010245800482698     0.002529762898043    -0.001305944383789
1 93
    -0.002985234600759    -0.000050292969812     0.000082731493399
    -0.000259154635305    -0.002061576367834    -0.000259154635305
     0.000082731493399    -0.000050292969812    -0.002985234600759
1 94
    -0.001845378469487    -0.000189858170749     0.000026516504294
    -0.000189858170749    -0.001845378469487     0.000026516504294
    -0.000026516504294    -0.000026516504294    -0.002205826151196
1 95
    -0.001845378469487    -0.000026516504294     0.000189858170749
     0.000026516504294    -0.002205826151196    -0.000026516504294
     0.000189858170749     0.000026516504294    -0.001845378469487
1 96
    -0.002985234600759    -0.000082731493399     0.000050292969812
    -0.000082731493399    -0.002985234600759    -0.000050292969812
     0.000259154635305    -0.000259154635305    -0.002061576367834
1 97
     0.108546541219099    -0.016319052237961     0.016319052237961
     0.016319052237961     0.001309731988168     0.009735446163376
    -0.016319052237961     0.009735446163376     0.001309731988168
1 98
    -0.006362553364402     0.001401043698573    -0.000193216927959
    -0.001401043698573    -0.003057713045831    -0.000905627010005
     0.000193216927959    -0.000905627010005    -0.006834900694234
1 99
    -0.003264365002633     0.000000000000000     0.000000000000000
     0.000000000000000    -0.002156682229904    -0.000000000000000
     0.000000000000000    -0.000000000000000    -0.003264365002633
1 100
    -0.002205826151196     0.000026516504294    -0.000026516504294
    -0.000026516504294    -0.001845378469487     0.000189858170749
     0.000026516504294     0.000189858170749    -0.001845378469487
1 101
    -0.003264365002633     0.000000000000000     0.000000000000000
     0.000000000000000    -0.003264365002633    -0.000000000000000
     0.000000000000000    -0.000000000000000    -0.002156682229904
1 102
    -0.006362553364402     0.000193216927959    -0.001401043698573
    -0.000193216927959    -0.006834900694234    -0.000905627010005
     0.001401043698573    -0.000905627010005    -0.003057713045831
1 103
    -0.016796002309157    -0.007741670205473    -0.029442158601655
    -0.013368207251722    -0.002800326177479     0.013368207251722
    -0.029442158601655     0.007741670205473    -0.016796002309157
1 104
    -0.006834900694234     0.000905627010005     0.000193216927959
     0.000905627010005    -0.003057713045831     0.001401043698573
    -0.000193216927959    -0.001401043698573    -0.006362553364402
1 105
    -0.002985234600759     0.000050292969812     0.000082731493399
     0.000259154635305    -0.002061576367834     0.000259154635305
     0.000082731493399     0.000050292969812    -0.002985234600759
1 106
    -0.002985234600759    -0.000082731493399    -0.000050292969812
    -0.000082731493399    -0.002985234600759     0.000050292969812
    -0.000259154635305     0.000259154635305    -0.002061576367834
1 107
    -0.006834900694234    -0.000193216927959    -0.000905627010005
     0.000193216927959    -0.006362553364402    -0.001401043698573
    -0.000905627010005     0.001401043698573    -0.003057713045831
1 108
    -0.016796002309157     0.029442158601655     0.007741670205473
     0.029442158601655    -0.016796002309157     0.007741670205473
     0.013368207251722     0.013368207251722    -0.002800326177479
1 109
     0.002329910296725    -0.008149759206566     0.000000000000000
    -0.008149759206566     0.002329910296725     0.000000000000000
     0.000000000000000     0.000000000000000     0.062392974504272
1 110
    -0.000650809951020    -0.003535268740890     0.005315586839222
    -0.002529762898043    -0.001305944383789    -0.010245800482698
     0.007654696071387    -0.009630440806370    -0.004035641724212
1 111
    -0.000650809951020    -0.005315586839222     0.003535268740890
    -0.007654696071387    -0.004035641724212    -0.009630440806370
     0.002529762898043    -0.010245800482698    -0.001305944383789
1 112
     0.002329910296725     0.000000000000000     0.008149759206566
     0.000000000000000     0.062392974504272    -0.000000000000000
     0.008149759206566    -0.000000000000000     0.002329910296725
1 113
    -0.000650809951020    -0.007654696071387     0.002529762898043
    -0.005315586839222    -0.004035641724212    -0.010245800482698
     0.003535268740890    -0.009630440806370    -0.001305944383789
1 114
    -0.000650809951020    -0.002529762898043     0.007654696071387
    -0.003535268740890    -0.001305944383789    -0.009630440806370
     0.005315586839222    -0.010245800482698    -0.004035641724212
1 115
    -0.001305944383789    -0.002529762898043    -0.010245800482698
    -0.003535268740890    -0.000650809951020     0.005315586839222
    -0.009630440806370     0.007654696071387    -0.004035641724212
1 116
    -0.004536980432073     0.000343742284004    -0.000343742284004
     0.000343742284004    -0.004536980432073    -0.000343742284004
    -0.000343742284004    -0.000343742284004    -0.004536980432073
1 117
    -0.001305944383789     0.010245800482698     0.002529762898043
     0.009630440806370    -0.004035641724212     0.007654696071387
     0.003535268740890     0.005315586839222    -0.000650809951020
1 118
    -0.002498745135303    -0.000210717820794    -0.000705692567624
     0.000210717820794    -0.003701710546797     0.000210717820794
    -0.000705692567624    -0.000210717820794    -0.002498745135303
1 119
    -0.002061576367834     0.000050292969812    -0.000050292969812
     0.000259154635305    -0.002985234600759    -0.000082731493399
    -0.000259154635305    -0.000082731493399    -0.002985234600759
1 120
    -0.002498745135303     0.000705692567624     0.000210717820794
     0.000705692567624    -0.002498745135303    -0.000210717820794
    -0.000210717820794     0.000210717820794    -0.003701710546797
1 121
    -0.004035641724212    -0.007654696071387    -0.009630440806370
    -0.005315586839222    -0.000650809951020     0.003535268740890
    -0.010245800482698     0.002529762898043    -0.001305944383789
1 122
    -0.004035641724212     0.009630440806370     0.007654696071387
     0.010245800482698    -0.001305944383789     0.002529762898043
     0.005315586839222     0.003535268740890    -0.000650809951020
1 123
    -0.002985234600759     0.000082731493399    -0.000050292969812
     0.000082731493399    -0.002985234600759    -0.000050292969812
    -0.000259154635305    -0.000259154635305    -0.002061576367834
1 124
    -0.001845378469487     0.000026516504294    -0.000189858170749
    -0.000026516504294    -0.002205826151196    -0.000026516504294
    -0.000189858170749     0.000026516504294    -0.001845378469487
1 125
    -0.001845378469487     0.000189858170749    -0.000026516504294
     0.000189858170749    -0.001845378469487     0.000026516504294
     0.000026516504294    -0.000026516504294    -0.002205826151196
1 126
    -0.002985234600759     0.000050292969812    -0.000082731493399
     0.000259154635305    -0.002061576367834    -0.000259154635305
    -0.000082731493399    -0.000050292969812    -0.002985234600759
1 127
     0.062392974504272     0.000000000000000     0.000000000000000
     0.000000000000000     0.002329910296725     0.008149759206566
     0.000000000000000     0.008149759206566     0.002329910296725
1 128
    -0.003701710546797     0.000210717820794     0.000210717820794
    -0.000210717820794    -0.002498745135303    -0.000705692567624
    -0.000210717820794    -0.000705692567624    -0.002498745135303
1 129
    -0.002205826151196    -0.000026516504294    -0.000026516504294
     0.000026516504294    -0.001845378469487    -0.000189858170749
     0.000026516504294    -0.000189858170749    -0.001845378469487
1 130
    -0.001788986703687     0.000000000000000     0.000000000000000
     0.000000000000000    -0.001788986703687    -0.000000000000000
     0.000000000000000    -0.000000000000000    -0.001788986703687
1 131
    -0.002205826151196     0.000026516504294     0.000026516504294
    -0.000026516504294    -0.001845378469487    -0.000189858170749
    -0.000026516504294    -0.000189858170749    -0.001845378469487
1 132
    -0.003701710546797    -0.000210717820794    -0.000210717820794
     0.000210717820794    -0.002498745135303    -0.000705692567624
     0.000210717820794    -0.000705692567624    -0.002498745135303
1 133
    -0.004035641724212    -0.005315586839222    -0.010245800482698
    -0.007654696071387    -0.000650809951020     0.002529762898043
    -0.009630440806370     0.003535268740890    -0.001305944383789
1 134
    -0.002985234600759     0.000259154635305    -0.000082731493399
     0.000050292969812    -0.002061576367834    -0.000050292969812
    -0.000082731493399    -0.000259154635305    -0.002985234600759
1 135
    -0.001845378469487     0.000189858170749     0.000026516504294
     0.000189858170749    -0.001845378469487    -0.000026516504294
    -0.000026516504294     0.000026516504294    -0.002205826151196
1 136
    -0.001845378469487    -0.000026516504294    -0.000189858170749
     0.000026516504294    -0.002205826151196     0.000026516504294
    -0.000189858170749    -0.000026516504294    -0.001845378469487
1 137
    -0.002985234600759     0.000082731493399    -0.000259154635305
     0.000082731493399    -0.002985234600759    -0.000259154635305
    -0.000050292969812    -0.000050292969812    -0.002061576367834
1 138
    -0.004035641724212     0.010245800482698     0.005315586839222
     0.009630440806370    -0.001305944383789     0.003535268740890
     0.007654696071387     0.002529762898043    -0.000650809951020
1 139
    -0.001305944383789    -0.003535268740890    -0.009630440806370
    -0.002529762898043    -0.000650809951020     0.007654696071387
    -0.010245800482698     0.005315586839222    -0.004035641724212
1 140
    -0.002498745135303     0.000705692567624    -0.000210717820794
     0.000705692567624    -0.002498745135303     0.000210717820794
     0.000210717820794    -0.000210717820794    -0.003701710546797
1 141
    -0.002061576367834     0.000259154635305    -0.000259154635305
     0.000050292969812    -0.002985234600759    -0.000082731493399
    -0.000050292969812    -0.000082731493399    -0.002985234600759
1 142
    -0.002498745135303     0.000210717820794    -0.000705692567624
    -0.000210717820794    -0.003701710546797    -0.000210717820794
    -0.000705692567624     0.000210717820794    -0.002498745135303
1 143
    -0.001305944383789     0.009630440806370     0.003535268740890
     0.010245800482698    -0.004035641724212     0.005315586839222
     0.002529762898043     0.007654696071387    -0.000650809951020
1 144
    -0.004536980432073     0.000343742284004    -0.000343742284004
     0.000343742284004    -0.004536980432073    -0.000343742284004
    -0.000343742284004    -0.000343742284004    -0.004536980432073
1 145
     0.001309731988168    -0.009735446163376     0.016319052237961
    -0.009735446163376     0.001309731988168     0.016319052237961
    -0.016319052237961    -0.016319052237961     0.108546541219099
1 146
    -0.002800326177479    -0.007741670205473     0.007741670205473