432  
1    

1    
  0.0000000000000000   0.0070710678118655   0.0070710678118655
  -0.0013379900   -0.0771727000   -0.0771727000
   0.0010759900    0.0018603900    0.0018603900
   0.0002335200    0.0000612100    0.0000612100
   0.0000017400    0.0000411500    0.0000411500
  -0.0002280400    0.0000579600    0.0000579600
  -0.0010609000    0.0018237100    0.0018237100
   0.0003069500   -0.0018270300    0.0004728200
  -0.0001533400    0.0001740100    0.0001133800
  -0.0000358000    0.0000354000    0.0000218800
   0.0000338800    0.0000231200    0.0000330600
   0.0001535200    0.0001153000    0.0001730100
  -0.0003072700    0.0004600500   -0.0018364300
  -0.0000452700   -0.0006513200   -0.0001233200
  -0.0000420100    0.0000651900    0.0000582200
   0.0000003100    0.0000354000    0.0000349000
   0.0000441600    0.0000592400    0.0000670400
   0.0000478200   -0.0001259800   -0.0006529300
  -0.0000002200    0.0003264700    0.0003274500
   0.0000576500   -0.0004412300   -0.0000165000
  -0.0000357900    0.0000999700    0.0000763400
   0.0000366900    0.0000783400    0.0001019700
  -0.0000576000   -0.0000164400   -0.0004411400
   0.0000128900    0.0000812000    0.0000962900
  -0.0000123000    0.0000969800    0.0000821900
   0.0001829100   -0.0008843800    0.0001044200
   0.0000001400    0.0003272400    0.0003266800
  -0.0001855100    0.0001078400   -0.0008815300
   0.0000534500    0.0000427900    0.0000822600
  -0.0000000900    0.0000354800    0.0000348700
  -0.0000557500    0.0000830400    0.0000416000
   0.0013706800   -0.0029080000    0.0015352000
  -0.0013806700    0.0015346800   -0.0028928800
   0.0001124200    0.0000749900    0.0002136500
   0.0000141600    0.0000301400    0.0000275900
  -0.0000138000    0.0000266300    0.0000290700
  -0.0001149100    0.0002129000    0.0000740800
   0.0003069500    0.0004728200   -0.0018270300
  -0.0001533400    0.0001133800    0.0001740100
  -0.0000358000    0.0000218800    0.0000354000
   0.0000338800    0.0000330600    0.0000231200
   0.0001535200    0.0001730100    0.0001153000
  -0.0003072700   -0.0018364300    0.0004600500
   0.0001881700   -0.0000894100   -0.0000894100
  -0.0000053400    0.0000292900    0.0000292900
  -0.0000010300    0.0000179800    0.0000179800
   0.0000043500    0.0000300100    0.0000300100
  -0.0001899700   -0.0000894000   -0.0000894000
  -0.0000004200    0.0001189400    0.0001189400
   0.0000714900   -0.0000449200   -0.0000578400
  -0.0000044400    0.0000245200    0.0000222700
   0.0000041800    0.0000223200    0.0000262700
  -0.0000725900   -0.0000598800   -0.0000428700
  -0.0000035100    0.0000492200    0.0000437200
   0.0000035100    0.0000435400    0.0000501900
   0.0000921300   -0.0000100500   -0.0000490900
   0.0000001400    0.0000342500    0.0000347500
  -0.0000940500   -0.0000499800   -0.0000080400
   0.0000025700    0.0000153600    0.0000280200
   0.0000000900    0.0000216100    0.0000218000
  -0.0000044400    0.0000273200    0.0000170100
   0.0002629300    0.0000643900   -0.0000745300
  -0.0002629300   -0.0000749200    0.0000636700
   0.0000070600    0.0000118200    0.0000549200
   0.0000007500    0.0000129400    0.0000208200
  -0.0000011600    0.0000206800    0.0000125800
  -0.0000085000    0.0000548500    0.0000115800
   0.0000014800    0.0001590800    0.0001594800
   0.0000003200    0.0000407200    0.0001184900
  -0.0000114600    0.0000152800    0.0000424900
  -0.0000004300    0.0000118100    0.0000135500
   0.0000110400    0.0000413600    0.0000151700
   0.0000003400    0.0001194000    0.0000417800
  -0.0000452700   -0.0001233200   -0.0006513200
  -0.0000420100    0.0000582200    0.0000651900
   0.0000003100    0.0000349000    0.0000354000
   0.0000441600    0.0000670400    0.0000592400
   0.0000478200   -0.0006529300   -0.0001259800
  -0.0000002200    0.0003274500    0.0003264700
   0.0000714900   -0.0000578400   -0.0000449200
  -0.0000044400    0.0000222700    0.0000245200
   0.0000041800    0.0000262700    0.0000223200
  -0.0000725900   -0.0000428700   -0.0000598800
  -0.0000035100    0.0000437200    0.0000492200
   0.0000035100    0.0000501900    0.0000435400
   0.0000605300   -0.0000253300   -0.0000253300
   0.0000007400    0.0000266100    0.0000266100
  -0.0000609000   -0.0000258300   -0.0000258300
   0.0000004600    0.0000208100    0.0000208100
   0.0000006500    0.0000231000    0.0000231000
  -0.0000009600    0.0000202800    0.0000202800
   0.0001110700   -0.0000147500   -0.0000128900
  -0.0001089700   -0.0000137400   -0.0000167900
   0.0000014200    0.0000147800    0.0000232000
   0.0000023900    0.0000141800    0.0000156900
  -0.0000006900    0.0000151700    0.0000123300
  -0.0000011000    0.0000227100    0.0000150700
   0.0000000100   -0.0000766800   -0.0000795400
   0.0000085900    0.0000281000    0.0000541000
  -0.0000000900    0.0000159900    0.0000230500
  -0.0000003500    0.0000126400    0.0000107600
  -0.0000001000    0.0000231200    0.0000145100
  -0.0000085000    0.0000553700    0.0000279500
   0.0003032700   -0.0000346100    0.0000245100
  -0.0000044800    0.0000315200    0.0000348900
  -0.0000026600    0.0000140400    0.0000190700
   0.0000021500    0.0000194800    0.0000143700
   0.0000055600    0.0000353100    0.0000315500
  -0.0003021500    0.0000239600   -0.0000352800
   0.0000576500   -0.0000165000   -0.0004412300
  -0.0000357900    0.0000763400    0.0000999700
   0.0000366900    0.0001019700    0.0000783400
  -0.0000576000   -0.0004411400   -0.0000164400
   0.0000128900    0.0000962900    0.0000812000
  -0.0000123000    0.0000821900    0.0000969800
   0.0000921300   -0.0000490900   -0.0000100500
   0.0000001400    0.0000347500    0.0000342500
  -0.0000940500   -0.0000080400   -0.0000499800
   0.0000025700    0.0000280200    0.0000153600
   0.0000000900    0.0000218000    0.0000216100
  -0.0000044400    0.0000170100    0.0000273200
   0.0001110700   -0.0000128900   -0.0000147500
  -0.0001089700   -0.0000167900   -0.0000137400
   0.0000014200    0.0000232000    0.0000147800
   0.0000023900    0.0000156900    0.0000141800
  -0.0000006900    0.0000123300    0.0000151700
  -0.0000011000    0.0000150700    0.0000227100
   0.0000000700   -0.0000741100   -0.0000741100
   0.0000032900    0.0000217900    0.0000217900
  -0.0000001600    0.0000153000    0.0000153000
  -0.0000000900    0.0000126500    0.0000126500
   0.0000005400    0.0000134900    0.0000134900
  -0.0000027000    0.0000235300    0.0000235300
   0.0001215800   -0.0000199800   -0.0000095200
   0.0000002600    0.0000165700    0.0000213000
  -0.0000021400    0.0000137700    0.0000154900
   0.0000001300    0.0000160400    0.0000119200
  -0.0000002400    0.0000216200    0.0000162700
  -0.0001228700   -0.0000077600   -0.0000207900
   0.0000910000   -0.0000326100   -0.0000248900
  -0.0000056600    0.0000182200    0.0000242900
   0.0000000900    0.0000218500    0.0000215000
   0.0000072900    0.0000250700    0.0000200800
  -0.0000896800   -0.0000262600   -0.0000333500
   0.0000004800    0.0000349300    0.0000341200
   0.0001829100    0.0001044200   -0.0008843800
   0.0000001400    0.0003266800    0.0003272400
  -0.0001855100   -0.0008815300    0.0001078400
   0.0000534500    0.0000822600    0.0000427900
  -0.0000000900    0.0000348700    0.0000354800
  -0.0000557500    0.0000416000    0.0000830400
   0.0002629300   -0.0000745300    0.0000643900
  -0.0002629300    0.0000636700   -0.0000749200
   0.0000070600    0.0000549200    0.0000118200
   0.0000007500    0.0000208200    0.0000129400
  -0.0000011600    0.0000125800    0.0000206800
  -0.0000085000    0.0000115800    0.0000548500
   0.0000000100   -0.0000795400   -0.0000766800
   0.0000085900    0.0000541000    0.0000281000
  -0.0000000900    0.0000230500    0.0000159900
  -0.0000003500    0.0000107600    0.0000126400
  -0.0000001000    0.0000145100    0.0000231200
  -0.0000085000    0.0000279500    0.0000553700
   0.0001215800   -0.0000095200   -0.0000199800
   0.0000002600    0.0000213000    0.0000165700
  -0.0000021400    0.0000154900    0.0000137700
   0.0000001300    0.0000119200    0.0000160400
  -0.0000002400    0.0000162700    0.0000216200
  -0.0001228700   -0.0000207900   -0.0000077600
   0.0000604500   -0.0000255000   -0.0000255000
  -0.0000039000    0.0000203700    0.0000203700
  -0.0000008300    0.0000230600    0.0000230600
   0.0000034100    0.0000206400    0.0000206400
  -0.0000610600   -0.0000256500   -0.0000256500
  -0.0000005600    0.0000266800    0.0000266800
   0.0000621000   -0.0000642700   -0.0000389500
  -0.0000164700    0.0000462100    0.0000462100
   0.0000161900    0.0000464800    0.0000477000
  -0.0000630700   -0.0000401800   -0.0000621900
   0.0000042500    0.0000249600    0.0000223800
  -0.0000044000    0.0000223100    0.0000259200
   0.0013706800    0.0015352000   -0.0029080000
  -0.0013806700   -0.0028928800    0.0015346800
   0.0001124200    0.0002136500    0.0000749900
   0.0000141600    0.0000275900    0.0000301400
  -0.0000138000    0.0000290700    0.0000266300
  -0.0001149100    0.0000740800    0.0002129000
   0.0000014800    0.0001594800    0.0001590800
   0.0000003200    0.0001184900    0.0000407200
  -0.0000114600    0.0000424900    0.0000152800
  -0.0000004300    0.0000135500    0.0000118100
   0.0000110400    0.0000151700    0.0000413600
   0.0000003400    0.0000417800    0.0001194000
   0.0003032700    0.0000245100   -0.0000346100
  -0.0000044800    0.0000348900    0.0000315200
  -0.0000026600    0.0000190700    0.0000140400
   0.0000021500    0.0000143700    0.0000194800
   0.0000055600    0.0000315500    0.0000353100
  -0.0003021500   -0.0000352800    0.0000239600
   0.0000910000   -0.0000248900   -0.0000326100
  -0.0000056600    0.0000242900    0.0000182200
   0.0000000900    0.0000215000    0.0000218500
   0.0000072900    0.0000200800    0.0000250700
  -0.0000896800   -0.0000333500   -0.0000262600
   0.0000004800    0.0000341200    0.0000349300
   0.0000621000   -0.0000389500   -0.0000642700
  -0.0000164700    0.0000462100    0.0000462100
   0.0000161900    0.0000477000    0.0000464800
  -0.0000630700   -0.0000621900   -0.0000401800
   0.0000042500    0.0000223800    0.0000249600
  -0.0000044000    0.0000259200    0.0000223100
   0.0001091100   -0.0000898900   -0.0000898900
   0.0000003900    0.0001189800    0.0001189800
  -0.0001098400   -0.0000889900   -0.0000889900
   0.0000045000    0.0000301300    0.0000301300
   0.0000003900    0.0000180100    0.0000180100
  -0.0000052500    0.0000291700    0.0000291700
   0.0283878800    0.0333593200    0.0333593200
  -0.0005601000    0.0000926400    0.0000926400
  -0.0000860800   -0.0000294000   -0.0000294000
   0.0000828400   -0.0000301800   -0.0000301800
   0.0005533400    0.0000826400    0.0000826400
  -0.0272382200    0.0325216100    0.0325216100
  -0.0002038300    0.0009185600   -0.0002625900
   0.0000836300   -0.0000832300   -0.0000690700
   0.0000002400   -0.0000570800   -0.0000548500
  -0.0000838800   -0.0000710900   -0.0000831200
   0.0002056200   -0.0002661000    0.0009212300
  -0.0000020700   -0.0005855700   -0.0005921700
  -0.0000831700    0.0004621700   -0.0000305700
   0.0000078000   -0.0000589400   -0.0000638000
  -0.0000098500   -0.0000657900   -0.0000594100
   0.0000835700   -0.0000311900    0.0004625900
  -0.0000634500   -0.0000863400   -0.0001582500
   0.0000616000   -0.0001583700   -0.0000859800
   0.0000011100    0.0005475700    0.0000537300
  -0.0000010200   -0.0001668000   -0.0001670900
  -0.0000010600    0.0000534300    0.0005461200
  -0.0000347500   -0.0000547600   -0.0000777300
  -0.0000005800   -0.0000271300   -0.0000266700
   0.0000349000   -0.0000770500   -0.0000544000
   0.0003498200    0.0014807400    0.0002912600
  -0.0003541000    0.0002934200    0.0014727000
  -0.0000720900   -0.0001136000   -0.0001482800
  -0.0000122900   -0.0000180000   -0.0000142300
   0.0000126500   -0.0000146800   -0.0000161500
   0.0000725700   -0.0001486900   -0.0001108400
   0.0001027300    0.0050647200    0.0051978200
  -0.0002234500   -0.0002627600   -0.0003654100
  -0.0000095200   -0.0000509400   -0.0000134500
   0.0000005300   -0.0000199300   -0.0000195800
   0.0000101600   -0.0000142400   -0.0000484600
   0.0002241900   -0.0003647600   -0.0002611400
  -0.0002038300   -0.0002625900    0.0009185600
   0.0000836300   -0.0000690700   -0.0000832300
   0.0000002400   -0.0000548500   -0.0000570800
  -0.0000838800   -0.0000831200   -0.0000710900
   0.0002056200    0.0009212300   -0.0002661000
  -0.0000020700   -0.0005921700   -0.0005855700
  -0.0000968000    0.0000985600    0.0000985600
   0.0000080600   -0.0000109400   -0.0000109400
  -0.0000074000   -0.0000113500   -0.0000113500
   0.0000989600    0.0000984100    0.0000984100
  -0.0000324900   -0.0000783800   -0.0000783800
   0.0000327700   -0.0000780100   -0.0000780100
  -0.0000840700    0.0000350000    0.0000280400
  -0.0000000700   -0.0000187000   -0.0000190600
   0.0000859600    0.0000300200    0.0000343900
  -0.0000094000   -0.0000287900   -0.0000375200
  -0.0000000200   -0.0000260200   -0.0000261200
   0.0000112700   -0.0000355100   -0.0000290100
  -0.0001818800    0.0000147000    0.0000268600
   0.0001814500    0.0000287500    0.0000147600
  -0.0000051300   -0.0000263400   -0.0000425000
   0.0000012900   -0.0000120100   -0.0000192000
  -0.0000012200   -0.0000178300   -0.0000119500
   0.0000055900   -0.0000404900   -0.0000281100
  -0.0000003000   -0.0000597200   -0.0000595100
  -0.0000249700   -0.0000369800   -0.0000858100
   0.0000074200   -0.0000129100   -0.0000333300
   0.0000007900   -0.0000132700   -0.0000132000
  -0.0000069900   -0.0000332500   -0.0000126900
   0.0000249000   -0.0000860000   -0.0000371600
  -0.0005254600    0.0000388800   -0.0000640900
   0.0000079400   -0.0000044100   -0.0000529400
   0.0000060600   -0.0000160100   -0.0000236800
  -0.0000038700   -0.0000233900   -0.0000177600
  -0.0000074900   -0.0000535900   -0.0000044500
   0.0005246600   -0.0000635000    0.0000398000
  -0.0000831700   -0.0000305700    0.0004621700
   0.0000078000   -0.0000638000   -0.0000589400
  -0.0000098500   -0.0000594100   -0.0000657900
   0.0000835700    0.0004625900   -0.0000311900
  -0.0000634500   -0.0001582500   -0.0000863400
   0.0000616000   -0.0000859800   -0.0001583700
  -0.0000840700    0.0000280400    0.0000350000
  -0.0000000700   -0.0000190600   -0.0000187000
   0.0000859600    0.0000343900    0.0000300200
  -0.0000094000   -0.0000375200   -0.0000287900
  -0.0000000200   -0.0000261200   -0.0000260200
   0.0000112700   -0.0000290100   -0.0000355100
  -0.0000941900    0.0000192200    0.0000192200
   0.0000935300    0.0000212000    0.0000212000
  -0.0000041600   -0.0000228100   -0.0000228100
   0.0000012000   -0.0000156400   -0.0000156400
  -0.0000015900   -0.0000138000   -0.0000138000
   0.0000042200   -0.0000227500   -0.0000227500
  -0.0000001900    0.0000523600    0.0000526200
  -0.0000121500   -0.0000205200   -0.0000278800
   0.0000033200   -0.0000118000   -0.0000183600
  -0.0000001200   -0.0000135300   -0.0000131500
  -0.0000050200   -0.0000165300   -0.0000112700
   0.0000102300   -0.0000282800   -0.0000223500
  -0.0001774600   -0.0000076800    0.0000294900
   0.0000024800   -0.0000081500   -0.0000284000
   0.0000037200   -0.0000132100   -0.0000179400
  -0.0000017100   -0.0000198500   -0.0000126200
  -0.0000024400   -0.0000287100   -0.0000079500
   0.0001784600    0.0000290400   -0.0000054300
  -0.0001152700    0.0000549700    0.0000190700
  -0.0000009600   -0.0000101800   -0.0000242600
   0.0000000700   -0.0000186000   -0.0000185500
   0.0000006500   -0.0000264100   -0.0000120200
   0.0001155900    0.0000202300    0.0000569800
  -0.0000003900   -0.0000693400   -0.0000689300
   0.0000011100    0.0000537300    0.0005475700
  -0.0000010200   -0.0001670900   -0.0001668000
  -0.0000010600    0.0005461200    0.0000534300
  -0.0000347500   -0.0000777300   -0.0000547600
  -0.0000005800   -0.0000266700   -0.0000271300
   0.0000349000   -0.0000544000   -0.0000770500
  -0.0001818800    0.0000268600    0.0000147000
   0.0001814500    0.0000147600    0.0000287500
  -0.0000051300   -0.0000425000   -0.0000263400
   0.0000012900   -0.0000192000   -0.0000120100
  -0.0000012200   -0.0000119500   -0.0000178300
   0.0000055900   -0.0000281100   -0.0000404900
  -0.0000001900    0.0000526200    0.0000523600
  -0.0000121500   -0.0000278800   -0.0000205200
   0.0000033200   -0.0000183600   -0.0000118000
  -0.0000001200   -0.0000131500   -0.0000135300
  -0.0000050200   -0.0000112700   -0.0000165300
   0.0000102300   -0.0000223500   -0.0000282800
  -0.0001037300    0.0000142800    0.0000142800
  -0.0000011600   -0.0000102600   -0.0000102600
   0.0000020000   -0.0000152400   -0.0000152400
  -0.0000014800   -0.0000148800   -0.0000148800
  -0.0000000900   -0.0000102500   -0.0000102500
   0.0001035300    0.0000141400    0.0000141400
  -0.0000552400    0.0000251700    0.0000285700
  -0.0000016200   -0.0000115100   -0.0000172400
   0.0000003500   -0.0000225500   -0.0000206800
   0.0000018200   -0.0000187100   -0.0000114700
   0.0000556400    0.0000284700    0.0000266300
   0.0000000700   -0.0000327800   -0.0000307900
  -0.0000686900    0.0000491300    0.0000263900
  -0.0000066400   -0.0000224900   -0.0000292700
   0.0000049100   -0.0000313700   -0.0000229600
   0.0000688700    0.0000261100    0.0000489600
  -0.0000098700   -0.0000308800   -0.0000218800
   0.0000080600   -0.0000237700   -0.0000308700
   0.0003498200    0.0002912600    0.0014807400
  -0.0003541000    0.0014727000    0.0002934200
  -0.0000720900   -0.0001482800   -0.0001136000
  -0.0000122900   -0.0000142300   -0.0000180000
   0.0000126500   -0.0000161500   -0.0000146800
   0.0000725700   -0.0001108400   -0.0001486900
  -0.0000003000   -0.0000595100   -0.0000597200
  -0.0000249700   -0.0000858100   -0.0000369800
   0.0000074200   -0.0000333300   -0.0000129100
   0.0000007900   -0.0000132000   -0.0000132700
  -0.0000069900   -0.0000126900   -0.0000332500
   0.0000249000   -0.0000371600   -0.0000860000
  -0.0001774600    0.0000294900   -0.0000076800
   0.0000024800   -0.0000284000   -0.0000081500
   0.0000037200   -0.0000179400   -0.0000132100
  -0.0000017100   -0.0000126200   -0.0000198500
  -0.0000024400   -0.0000079500   -0.0000287100
   0.0001784600   -0.0000054300    0.0000290400
  -0.0000552400    0.0000285700    0.0000251700
  -0.0000016200   -0.0000172400   -0.0000115100
   0.0000003500   -0.0000206800   -0.0000225500
   0.0000018200   -0.0000114700   -0.0000187100
   0.0000556400    0.0000266300    0.0000284700
   0.0000000700   -0.0000307900   -0.0000327800
  -0.0000420500    0.0000410800    0.0000410800
  -0.0000045600   -0.0000356200   -0.0000356200
   0.0000049500   -0.0000359000   -0.0000359000
   0.0000439100    0.0000409100    0.0000409100
  -0.0000045800   -0.0000210600   -0.0000210600
   0.0000048800   -0.0000211100   -0.0000211100
  -0.0001045000    0.0001018800    0.0000290200
   0.0000000400   -0.0000610300   -0.0000609400
   0.0001068400    0.0000299400    0.0001013200
  -0.0000053700   -0.0000334200   -0.0000263600
   0.0000000900   -0.0000163100   -0.0000163900
   0.0000074600   -0.0000243400   -0.0000333400
   0.0001027300    0.0051978200    0.0050647200
  -0.0002234500   -0.0003654100   -0.0002627600
  -0.0000095200   -0.0000134500   -0.0000509400
   0.0000005300   -0.0000195800   -0.0000199300
   0.0000101600   -0.0000484600   -0.0000142400
   0.0002241900   -0.0002611400   -0.0003647600
  -0.0005254600   -0.0000640900    0.0000388800
   0.0000079400   -0.0000529400   -0.0000044100
   0.0000060600   -0.0000236800   -0.0000160100
  -0.0000038700   -0.0000177600   -0.0000233900
  -0.0000074900   -0.0000044500   -0.0000535900
   0.0005246600    0.0000398000   -0.0000635000
  -0.0001152700    0.0000190700    0.0000549700
  -0.0000009600   -0.0000242600   -0.0000101800
   0.0000000700   -0.0000185500   -0.0000186000
   0.0000006500   -0.0000120200   -0.0000264100
   0.0001155900    0.0000569800    0.0000202300
  -0.0000003900   -0.0000689300   -0.0000693400
  -0.0000686900    0.0000263900    0.0000491300
  -0.0000066400   -0.0000292700   -0.0000224900
   0.0000049100   -0.0000229600   -0.0000313700
   0.0000688700    0.0000489600    0.0000261100
  -0.0000098700   -0.0000218800   -0.0000308800
   0.0000080600   -0.0000308700   -0.0000237700
  -0.0001045000    0.0000290200    0.0001018800
   0.0000000400   -0.0000609400   -0.0000610300
   0.0001068400    0.0001013200    0.0000299400
  -0.0000053700   -0.0000263600   -0.0000334200
   0.0000000900   -0.0000163900   -0.0000163100
   0.0000074600   -0.0000333400   -0.0000243400
  -0.0003020800    0.0001587000    0.0001587000
   0.0003005900    0.0001612600    0.0001612600
  -0.0000013300   -0.0000679500   -0.0000679500
   0.0000025700   -0.0000173500   -0.0000173500
  -0.0000024400   -0.0000154300   -0.0000154300
   0.0000018000   -0.0000671500   -0.0000671500
