300  
4    

1    
  0.0072129729003353   0.0000000000000000   0.0069262559827823
  -0.1583004200    0.0013266500   -0.1344697700
   0.0189033300    0.0047206700   -0.0062455700
   0.0018840600    0.0006167600   -0.0010312000
   0.0014326400   -0.0001668500   -0.0005580200
   0.0157060800   -0.0004732700   -0.0029592200
  -0.0036226000   -0.0077102800   -0.0057249700
   0.0015807700    0.0082432900   -0.0035062100
   0.0022446600    0.0013474700   -0.0014888000
   0.0009406800    0.0000741700   -0.0003943400
   0.0014075300   -0.0008636100   -0.0002584500
  -0.0006361400   -0.0006722000   -0.0008816800
  -0.0000894800    0.0006742700   -0.0008699900
  -0.0000223700    0.0008381500   -0.0007087800
   0.0004332400    0.0002942300   -0.0004339600
   0.0003057200   -0.0003653100   -0.0003545200
  -0.0004115600   -0.0018461500   -0.0011177700
   0.0004062000   -0.0003083500   -0.0004600300
   0.0003316900    0.0003511400   -0.0003276200
  -0.0002459900    0.0012330300   -0.0004716900
  -0.0000887300   -0.0004761600   -0.0008701300
  -0.0021108200   -0.0155707800   -0.0073618600
   0.0024050900   -0.0014430300   -0.0013014800
   0.0009400800   -0.0000440600   -0.0003937400
   0.0012398700    0.0007648100   -0.0004364400
   0.0000798400    0.0107893100   -0.0018567800
  -0.0002492400   -0.0000000800    0.0051726700
   0.0003580400    0.0001937900    0.0025295200
   0.0006603200    0.0000751200    0.0005790600
   0.0003861600    0.0000169000   -0.0000105900
  -0.0010564100    0.0002033600   -0.0006039100
  -0.0008475700    0.0003614400    0.0008306000
   0.0002035600    0.0006661700    0.0010923700
   0.0003565700    0.0003718400    0.0007313800
   0.0003873600    0.0000426600    0.0001764800
  -0.0000415800   -0.0001414100   -0.0001031000
  -0.0001462000   -0.0001416300    0.0002752100
  -0.0001210300    0.0002172300    0.0003216800
   0.0000703800    0.0003331200    0.0002927100
   0.0001348900    0.0001460700    0.0002140900
   0.0000613500   -0.0001879000    0.0001384100
   0.0000404100   -0.0005237300    0.0005698100
   0.0001523600   -0.0001420400    0.0002603800
   0.0001109900    0.0001655800    0.0000958600
  -0.0000166600    0.0002399200   -0.0000022900
  -0.0002869800   -0.0002303000    0.0003127700
  -0.0002818000   -0.0006098500    0.0023978900
   0.0004566500   -0.0003338300    0.0007942300
   0.0003980900   -0.0000241200    0.0001782300
   0.0000803600    0.0001160000   -0.0001509800
  -0.0006449900   -0.0008140500   -0.0004737600
  -0.0002508500    0.0000006900    0.0051422900
  -0.0018533000   -0.0008940200    0.0002047900
   0.0002388200   -0.0000673900    0.0001171900
   0.0008037800   -0.0002397100    0.0004009300
   0.0011564800   -0.0005571600    0.0016656800
   0.0009198100   -0.0010102200    0.0011243200
  -0.0018431300   -0.0008688300    0.0007503800
  -0.0001864200   -0.0000377700    0.0001025400
   0.0003973700   -0.0000908800    0.0001532600
   0.0007209500   -0.0004853400    0.0004917700
   0.0002863600   -0.0004331900    0.0002889300
  -0.0002853800   -0.0004626000    0.0002888300
  -0.0002637600    0.0000973500    0.0002302200
   0.0000524000    0.0001994500    0.0001321000
   0.0002104900   -0.0001076000    0.0001748200
  -0.0000462100   -0.0000301300    0.0001471800
   0.0000616600   -0.0001877800    0.0001131700
   0.0001342100    0.0001453000    0.0001895100
  -0.0000299100    0.0006740700    0.0003721700
  -0.0001203400    0.0005239500    0.0002977100
  -0.0004440300    0.0016864400    0.0003940000
  -0.0002442300   -0.0000251500    0.0000819500
   0.0003863900    0.0000413500    0.0001511900
   0.0005575200    0.0004853100    0.0004952500
  -0.0001967200    0.0016434900    0.0014808800
   0.0088192200   -0.0063147300    0.0213514000
   0.0026061700   -0.0006849900    0.0011418200
   0.0009917800   -0.0001285100   -0.0001056400
   0.0010535000   -0.0000371200   -0.0011783600
  -0.0105370700   -0.0048772100   -0.0068401000
  -0.0021037200    0.0111688500    0.0072368300
   0.0014003700    0.0026860300    0.0024018600
   0.0009503800    0.0003265600    0.0001184700
   0.0005395600   -0.0001574000   -0.0003528700
  -0.0012548400   -0.0011496100   -0.0019354400
  -0.0002256900    0.0005701500    0.0000357200
  -0.0000725400    0.0011346700   -0.0000725000
   0.0002171300    0.0007948800    0.0001080400
   0.0001743800    0.0000005700   -0.0001141400
  -0.0001342900   -0.0005224900   -0.0003426500
   0.0003473700   -0.0003717300    0.0000509300
   0.0002991800    0.0002023300   -0.0001228000
   0.0001258700    0.0005002500   -0.0002632500
  -0.0004155700    0.0001818800   -0.0001284800
  -0.0003580300   -0.0006199900   -0.0001078600
   0.0015760500   -0.0019030600    0.0011936300
   0.0009345200   -0.0003672300    0.0000451900
   0.0005843400    0.0001642200   -0.0002907400
   0.0001768300    0.0009183900   -0.0012346800
  -0.0032489600   -0.0015346200    0.0002237700
  -0.0004182100    0.0000679400    0.0019987900
  -0.0000911600    0.0001651800    0.0007677800
   0.0003576500    0.0000436500    0.0003301900
   0.0002135700    0.0000349800    0.0004485200
  -0.0000510600    0.0001437200    0.0016160100
  -0.0003002700   -0.0002117400    0.0018075300
  -0.0001520400    0.0000137200    0.0008741000
   0.0001415800    0.0000856100    0.0003901000
   0.0002444600   -0.0000910200    0.0002824800
   0.0000720300   -0.0001426500    0.0006383900
  -0.0000716200   -0.0003174700    0.0006187300
  -0.0000504500   -0.0000460900    0.0005979100
   0.0000068000    0.0001367400    0.0003659400
   0.0000503300    0.0000002400    0.0002491400
   0.0000633300   -0.0002224100    0.0003066400
   0.0000151300   -0.0001977700    0.0003699000
   0.0001294600   -0.0000594000    0.0003114800
   0.0000911500    0.0001538500    0.0002906100
  -0.0000947500    0.0001371900    0.0003120600
  -0.0001411700   -0.0000451400    0.0003603400
  -0.0003368000    0.0000109800    0.0007784000
   0.0002107600   -0.0000471600    0.0003652500
   0.0003134300    0.0001059900    0.0002576800
  -0.0000107900    0.0001521000    0.0004383500
  -0.0001754300    0.0001290300    0.0007563000
  -0.0143903000    0.0071105300   -0.0027267800
   0.0007118700   -0.0001596000   -0.0007988000
   0.0009896700    0.0001729500   -0.0000797000
   0.0029302600    0.0015530400    0.0008196600
   0.0125526200    0.0084080300    0.0171620600
  -0.0020423900   -0.0155499900    0.0072526000
  -0.0020184400    0.0007146700   -0.0011301200
   0.0005176100    0.0001327400   -0.0003055300
   0.0009686000   -0.0003702600    0.0001206700
   0.0021419300   -0.0031008300    0.0016277400
  -0.0001979800   -0.0021287700    0.0000933500
  -0.0000970900   -0.0005030000   -0.0000699300
  -0.0001762500    0.0005121300   -0.0002754700
   0.0001738600    0.0000006500   -0.0000886400
   0.0002573200   -0.0007822000    0.0000909800
   0.0000854400   -0.0005217800   -0.0001942600
   0.0002988400   -0.0001867700   -0.0000963100
   0.0003874800    0.0003479200    0.0000361500
  -0.0003766100    0.0006667500   -0.0000617900
  -0.0003962500   -0.0001544500   -0.0001215900
  -0.0002911000   -0.0002565800   -0.0007155400
   0.0005966100   -0.0001723600   -0.0002790300
   0.0009196100    0.0003579600    0.0000862700
   0.0020397700    0.0014839500    0.0007396400
  -0.0032425000    0.0024020800    0.0002542200
   0.0048909000   -0.0000023200   -0.0093291800
  -0.0030382300   -0.0009414700   -0.0039819800
  -0.0013019200   -0.0001035800   -0.0004245600
  -0.0006648700    0.0000756100    0.0002822900
   0.0002877000    0.0011526700    0.0031930400
   0.0016940200   -0.0010163500   -0.0005267400
   0.0002168700   -0.0019659600   -0.0002551700
  -0.0008708400   -0.0008740100   -0.0007374000
  -0.0005535100   -0.0000590800   -0.0000097600
  -0.0001462100    0.0004546900    0.0005884000
   0.0002131400    0.0001340200   -0.0000575000
   0.0001078900   -0.0004319200   -0.0000611000
  -0.0001291900   -0.0006718300   -0.0000840700
  -0.0001436600   -0.0002373200   -0.0000560900
  -0.0000416900    0.0002947200    0.0000370200
  -0.0001909600    0.0010140400   -0.0004102600
  -0.0003239000    0.0001995300   -0.0000930200
  -0.0002241800   -0.0002569100    0.0000802000
   0.0001026900   -0.0004485700    0.0002696800
   0.0006420300    0.0004171600   -0.0000713900
   0.0001859200    0.0036932800   -0.0041161700
  -0.0010840000    0.0006888700   -0.0006465700
  -0.0006693700    0.0000580000   -0.0000067100
  -0.0003364600   -0.0002559200    0.0005244100
   0.0020302000   -0.0009159100    0.0033303500
   0.0003788500   -0.0000002800   -0.0017929700
   0.0004585300    0.0001717600   -0.0011879900
  -0.0002181800   -0.0000405400   -0.0003391800
  -0.0003994100    0.0000671700   -0.0003827400
  -0.0001925600    0.0000959300   -0.0011724000
  -0.0000268000    0.0003038700   -0.0012220900
   0.0005310500    0.0001253500   -0.0011385800
   0.0000005800   -0.0000553600   -0.0003914900
  -0.0002526200    0.0000205000   -0.0002441100
  -0.0002665300    0.0002090400   -0.0004562200
  -0.0000492900    0.0002488000   -0.0003896700
   0.0001080000    0.0001326600   -0.0004566400
   0.0000648600   -0.0001053800   -0.0003329700
  -0.0000439700   -0.0001206500   -0.0002383300
  -0.0000800000    0.0000994600   -0.0002500300
   0.0000832700    0.0001273700   -0.0003679700
  -0.0000809600    0.0001157900   -0.0002541100
  -0.0001144600   -0.0000962400   -0.0002478300
   0.0000157600   -0.0002978100   -0.0003548500
   0.0000959700   -0.0001542500   -0.0004239900
   0.0002838500   -0.0003089200   -0.0012299400
   0.0000076000    0.0000583500   -0.0004425800
  -0.0002813500   -0.0000191400   -0.0002508100
  -0.0002224800   -0.0001903500   -0.0004700700
   0.0001902700   -0.0003880700   -0.0011307000
   0.0173165100   -0.0000076400    0.0534369200
   0.0016002500   -0.0016740700    0.0056767100
  -0.0007271100   -0.0001443600    0.0006895800
  -0.0017532400    0.0000137800    0.0000775800
  -0.0063064700   -0.0000035000   -0.0021937800
  -0.0002768100    0.0050977800    0.0009927500
   0.0022393400    0.0026038200    0.0024704000
  -0.0002518800   -0.0005463700    0.0010058800
  -0.0006360800    0.0000515300    0.0002454600
  -0.0011405500    0.0010560000   -0.0000273700
  -0.0002002300    0.0010429600    0.0003969100
   0.0002514300    0.0005921600    0.0005048800
   0.0002012900   -0.0000864900    0.0003704200
  -0.0000805300   -0.0003216100    0.0002917800
  -0.0001708100    0.0002677400    0.0001988000
   0.0002522100    0.0004183800    0.0007023000
  -0.0002294200    0.0002918600    0.0003381900
  -0.0003455000   -0.0002242600    0.0001599000
  -0.0003767300   -0.0012448500    0.0000638200
   0.0006914200   -0.0005144000    0.0004874200
   0.0038310100   -0.0003269800    0.0049308900
  -0.0003215400    0.0003327100    0.0010639200
  -0.0007344600   -0.0000663300    0.0002491100
  -0.0013472400   -0.0009211600   -0.0000546400
  -0.0015962200   -0.0056905400   -0.0014619400
   0.0617624100   -0.0263336000    0.0329404300
  -0.0048923500   -0.0000459800    0.0007265500
  -0.0015437000   -0.0000241100    0.0003906000
  -0.0018723800   -0.0003045900    0.0009131300
   0.0358622800    0.0112196700    0.0075192300
   0.0162952500    0.0138459500    0.0198310400
  -0.0039384300   -0.0048622400    0.0010210500
  -0.0014183200   -0.0004589600    0.0003913500
  -0.0009394200    0.0002349000    0.0003890200
  -0.0006939300    0.0029797400    0.0019179800
   0.0017742600   -0.0012596100    0.0010345200
  -0.0000423000   -0.0011789000    0.0006097600
  -0.0006007000   -0.0011399700    0.0003879600
  -0.0003169900   -0.0000007500    0.0002539000
  -0.0001672100    0.0008351400    0.0003926600
  -0.0001996200    0.0007750700    0.0004238300
  -0.0002789800   -0.0001479600    0.0003352200
  -0.0002430800   -0.0007517300    0.0003582900
   0.0003961000   -0.0001071400    0.0003867000
   0.0003523800    0.0006290200    0.0003937100
  -0.0020039100    0.0050284300    0.0009399600
  -0.0010588900    0.0004511900    0.0003244300
  -0.0008029200   -0.0003016000    0.0003457100
  -0.0008062100   -0.0022409100    0.0007016700
   0.0044750700    0.0018675000    0.0014742100
  -0.0002001200    0.0002971700   -0.0025010600
  -0.0006067200    0.0001398200   -0.0011832500
  -0.0004718500    0.0000085800   -0.0002790000
  -0.0000808000   -0.0000738100    0.0000590100
   0.0013843100    0.0006184100   -0.0016605200
   0.0003139400   -0.0009151800   -0.0020805700
  -0.0001261300   -0.0005718800   -0.0012482100
  -0.0003825300   -0.0001390300   -0.0004632400
  -0.0002326500    0.0000614000   -0.0001209000
   0.0004412600    0.0002436200   -0.0002126100
   0.0001838600   -0.0000898900   -0.0005305900
  -0.0000221900   -0.0003982100   -0.0005927000
  -0.0001050600   -0.0003078300   -0.0004000900
  -0.0001049500   -0.0000002500   -0.0002056200
   0.0000369000    0.0002162700   -0.0001838100
  -0.0000865800    0.0002224600   -0.0003611400
  -0.0001274800   -0.0000590800   -0.0002634700
  -0.0000722300   -0.0002306400   -0.0001964500
   0.0001466500   -0.0000717100   -0.0002286200
   0.0001390700    0.0002401600   -0.0003544700
  -0.0002502200    0.0004488800   -0.0011518900
  -0.0003904200    0.0001520500   -0.0003977600
  -0.0002878100   -0.0000923100   -0.0001292100
   0.0000692500   -0.0000256700    0.0000282000
   0.0008638600    0.0003280900   -0.0007299400
   0.0037781000   -0.0020595000   -0.0038050700
   0.0002570900    0.0001366200    0.0004595200
  -0.0005500900   -0.0000207900   -0.0000943700
  -0.0012293700   -0.0003465700   -0.0011124900
  -0.0015129500   -0.0009915200   -0.0037249000
   0.0002076500    0.0030533000   -0.0037665200
   0.0009644800   -0.0000047900    0.0002637300
  -0.0001702700   -0.0000257300    0.0000944200
  -0.0005716200    0.0002119900   -0.0002710700
  -0.0006663600    0.0009427200   -0.0011964000
  -0.0001502700    0.0010121600   -0.0005262000
   0.0004104600    0.0003828900   -0.0001310400
   0.0001148200   -0.0001744700    0.0000340800
  -0.0001313900   -0.0000003700   -0.0000459500
  -0.0002479600    0.0004279100   -0.0002111100
  -0.0000732800    0.0002753400   -0.0000253400
  -0.0001070500    0.0001515600   -0.0000638100
  -0.0001099600   -0.0002540400   -0.0001644400
   0.0001254700   -0.0003931300   -0.0001491800
   0.0001645300   -0.0000482900   -0.0000288200
   0.0003496300   -0.0003355300    0.0002596300
  -0.0002429000    0.0000789700    0.0000735300
  -0.0005049500   -0.0002291700   -0.0002011000
  -0.0005791300   -0.0008466600   -0.0009171200
   0.0009696100   -0.0009404700   -0.0004676900

1    
 -0.0072129729003353   0.0000000000000000  -0.0069262559827823
   0.1550737400    0.0012881900    0.1360533200
  -0.0188074900   -0.0047807300    0.0062410800
  -0.0018869900   -0.0006225600    0.0010536000
  -0.0014333200    0.0001631200    0.0005841700
  -0.0158185900    0.0004384300    0.0030851400
   0.0036795300    0.0077125600    0.0058030000
  -0.0016497700   -0.0082425000    0.0034958400
  -0.0022318600   -0.0013409800    0.0015010900
  -0.0009409400   -0.0000724800    0.0004148100
  -0.0014118100    0.0008680800    0.0002802100
   0.0006413800    0.0006740900    0.0009061700
   0.0000906700   -0.0006847200    0.0008942600
   0.0000150400   -0.0008373100    0.0007303100
  -0.0004322300   -0.0002924500    0.0004539200
  -0.0003057500    0.0003680100    0.0003758800
   0.0004133900    0.0018532100    0.0011413600
  -0.0004077700    0.0003079700    0.0004813400
  -0.0003311000   -0.0003525000    0.0003494000
   0.0002439600   -0.0012278800    0.0004960800
   0.0000913000    0.0004805900    0.0008941200
   0.0020973200    0.0156234600    0.0073870300
  -0.0024194700    0.0014465000    0.0013254700
  -0.0009414300    0.0000432300    0.0004154500
  -0.0012309400   -0.0007657500    0.0004650900
  -0.0000574700   -0.0107523900    0.0019239100
   0.0002599100   -0.0000000800   -0.0051049400
  -0.0003536100   -0.0001913000   -0.0025049200
  -0.0006589400   -0.0000750700   -0.0005617600
  -0.0003859400   -0.0000169900    0.0000272600
   0.0010477900   -0.0001992100    0.0006175000
   0.0008403100   -0.0003556500   -0.0008170200
  -0.0001986200   -0.0006615300   -0.0010729400
  -0.0003559400   -0.0003709000   -0.0007120100
  -0.0003870100   -0.0000422400   -0.0001588300
   0.0000425000    0.0001414100    0.0001206800
   0.0001464500    0.0001418100   -0.0002590400
   0.0001200100   -0.0002158400   -0.0003059900
  -0.0000699700   -0.0003321300   -0.0002759800
  -0.0001346800   -0.0001453800   -0.0001967500
  -0.0000611600    0.0001884500   -0.0001213600
  -0.0000402700    0.0005226400   -0.0005537700
  -0.0001522400    0.0001417600   -0.0002439800
  -0.0001113700   -0.0001657000   -0.0000793900
   0.0000168200   -0.0002405700    0.0000183500
   0.0002869700    0.0002296100   -0.0002970300
   0.0002816900    0.0006030800   -0.0023776500
  -0.0004552200    0.0003318100   -0.0007783800
  -0.0003980600    0.0000233400   -0.0001615700
  -0.0000814100   -0.0001165700    0.0001662900
   0.0006443100    0.0008054500    0.0004888100
   0.0002586900    0.0000007000   -0.0051349800
   0.0018463600    0.0008892800   -0.0002355700
  -0.0002409300    0.0000669700   -0.0001493500
  -0.0008078400    0.0002412500   -0.0004354100
  -0.0011508100    0.0005538000   -0.0017070400
  -0.0009087000    0.0010089200   -0.0011600700
   0.0018383100    0.0008671100   -0.0007782200
   0.0001841600    0.0000370500   -0.0001347100
  -0.0003989400    0.0000916200   -0.0001864400
  -0.0007233200    0.0004876600   -0.0005265500
  -0.0002866200    0.0004350200   -0.0003218900
   0.0002887300    0.0004616800   -0.0003210600
   0.0002620700   -0.0000983000   -0.0002618100
  -0.0000531100   -0.0001993900   -0.0001647500
  -0.0002110900    0.0001087500   -0.0002077300
   0.0000464400    0.0000317900   -0.0001787500
  -0.0000617300    0.0001880200   -0.0001455300
  -0.0001343400   -0.0001467100   -0.0002223100
   0.0000296900   -0.0006757200   -0.0004047500
   0.0001206800   -0.0005238500   -0.0003300700
   0.0004472800   -0.0016776800   -0.0004242400
   0.0002419800    0.0000255800   -0.0001132400
  -0.0003879200   -0.0000424500   -0.0001840700
  -0.0005571300   -0.0004897500   -0.0005293700
   0.0001975900   -0.0016417300   -0.0015138600
  -0.0086470400    0.0061632400   -0.0212236100
  -0.0026060600    0.0006762100   -0.0011882800
  -0.0009916400    0.0001270500    0.0000709900
  -0.0010451000    0.0000343000    0.0011405100
   0.0104981800    0.0048744400    0.0066969600
   0.0020415900   -0.0110601000   -0.0072817800
  -0.0013918800   -0.0026752500   -0.0024196200
  -0.0009481200   -0.0003275900   -0.0001516700
  -0.0005396400    0.0001566800    0.0003204900
   0.0012640300    0.0011451900    0.0019058200
   0.0002300400   -0.0005749700   -0.0000762300
   0.0000670500   -0.0011328900    0.0000281500
  -0.0002174700   -0.0007914400   -0.0001410200
  -0.0001739400    0.0000005800    0.0000808300
   0.0001352700    0.0005243300    0.0003096400
  -0.0003473900    0.0003722900   -0.0000867900
  -0.0002992800   -0.0002030900    0.0000883500
  -0.0001262400   -0.0004993300    0.0002277100
   0.0004157600   -0.0001800300    0.0000942400
   0.0003581600    0.0006214900    0.0000726500
  -0.0015739900    0.0019074200   -0.0012427200
  -0.0009353900    0.0003668400   -0.0000802400
  -0.0005833600   -0.0001644300    0.0002570000
  -0.0001757700   -0.0009119300    0.0011904600
   0.0032446600    0.0015317200   -0.0002662900
   0.0004191500   -0.0000685700   -0.0019694300
   0.0000903100   -0.0001651200   -0.0007457100
  -0.0003584200   -0.0000443300   -0.0003106500
  -0.0002143800   -0.0000352200   -0.0004305600
   0.0000529600   -0.0001431800   -0.0015883500
   0.0003006700    0.0002116500   -0.0017787600
   0.0001523100   -0.0000140700   -0.0008516600
  -0.0001421200   -0.0000854700   -0.0003697300
  -0.0002447500    0.0000915600   -0.0002633300
  -0.0000720900    0.0001440700   -0.0006203500
   0.0000715500    0.0003182200   -0.0005995300
   0.0000505900    0.0000462300   -0.0005763900
  -0.0000069900   -0.0001366200   -0.0003456200
  -0.0000504900    0.0000002500   -0.0002295000
  -0.0000632000    0.0002231900   -0.0002874400
  -0.0000150900    0.0001982000   -0.0003503200
  -0.0001298100    0.0000594700   -0.0002920300
  -0.0000914800   -0.0001541400   -0.0002708700
   0.0000950100   -0.0001372700   -0.0002924900
   0.0001413700    0.0000455800   -0.0003407500
   0.0003363100   -0.0000111200   -0.0007570400
  -0.0002111200    0.0000467200   -0.0003454800
  -0.0003143500   -0.0001067700   -0.0002386100
   0.0000107700   -0.0001533000   -0.0004187400
   0.0001770500   -0.0001298900   -0.0007359500
   0.0143343400   -0.0070806700    0.0028018800
  -0.0007114900    0.0001549200    0.0008167000
  -0.0009938300   -0.0001757100    0.0000969300
  -0.0029574900   -0.0015748800   -0.0008072000
  -0.0126028500   -0.0085094800   -0.0174057600
   0.0021030100    0.0155576500   -0.0072658500
   0.0020039600   -0.0007121600    0.0011452500
  -0.0005183200   -0.0001337500    0.0003227400
  -0.0009732900    0.0003725100   -0.0001043500
  -0.0021538300    0.0031288000   -0.0016279300
   0.0002018000    0.0021450600   -0.0000769600
   0.0000984800    0.0004958600    0.0000890700
   0.0001739300   -0.0005107700    0.0002928500
  -0.0001744100    0.0000006500    0.0001063800
  -0.0002578900    0.0007871500   -0.0000741000
  -0.0000860700    0.0005243600    0.0002128300
  -0.0002997300    0.0001863600    0.0001147600
  -0.0003878800   -0.0003495900   -0.0000176800
   0.0003769000   -0.0006668100    0.0000798700
   0.0003977800    0.0001564400    0.0001400100
   0.0002916800    0.0002579100    0.0007353100
  -0.0005991300    0.0001724200    0.0002977300
  -0.0009224400   -0.0003599600   -0.0000683200
  -0.0020457700   -0.0014900400   -0.0007225500
   0.0032513900   -0.0024003700   -0.0002358600
  -0.0048465700   -0.0000023600    0.0092253500
   0.0030204000    0.0009512100    0.0039788200
   0.0012999500    0.0001054900    0.0004260000
   0.0006646500   -0.0000746500   -0.0002824700
  -0.0002842200   -0.0011442400   -0.0031766000
  -0.0016989000    0.0010096100    0.0005455400
  -0.0002109500    0.0019523700    0.0002634900
   0.0008683900    0.0008712700    0.0007331100
   0.0005530400    0.0000586100    0.0000087100
   0.0001459600   -0.0004551000   -0.0005921200
  -0.0002142700   -0.0001348700    0.0000583700
  -0.0001070800    0.0004316600    0.0000635400
   0.0001305000    0.0006695100    0.0000858800
   0.0001435500    0.0002357300    0.0000554300
   0.0000416700   -0.0002960300   -0.0000375700
   0.0001897300   -0.0010138300    0.0004132100
   0.0003241900   -0.0001993000    0.0000938400
   0.0002244900    0.0002570500   -0.0000799300
  -0.0001018600    0.0004480300   -0.0002680000
  -0.0006416300   -0.0004183200    0.0000735900
  -0.0001984800   -0.0036812700    0.0041212900
   0.0010836400   -0.0006867400    0.0006501100
   0.0006695000   -0.0000571300    0.0000066500
   0.0003353800    0.0002560900   -0.0005230200
  -0.0020195300    0.0009185600   -0.0033160500
  -0.0003807500   -0.0000002800    0.0017939300
  -0.0004573700   -0.0001703700    0.0011889200
   0.0002191000    0.0000407000    0.0003456400
   0.0004007600   -0.0000675700    0.0003917900
   0.0001924700   -0.0000959400    0.0011783800
   0.0000248100   -0.0003046200    0.0012266900
  -0.0005302600   -0.0001258100    0.0011403300
   0.0000000700    0.0000552300    0.0003972800
   0.0002532800   -0.0000210600    0.0002514700
   0.0002671300   -0.0002099600    0.0004649900
   0.0000492800   -0.0002495500    0.0003975700
  -0.0001084200   -0.0001329400    0.0004635200
  -0.0000643500    0.0001054500    0.0003391300
   0.0000444000    0.0001204100    0.0002454800
   0.0000803400   -0.0001000500    0.0002573100
  -0.0000831900   -0.0001279300    0.0003744200
   0.0000811600   -0.0001159000    0.0002611300
   0.0001149700    0.0000965900    0.0002551500
  -0.0000155900    0.0002985100    0.0003621100
  -0.0000960900    0.0001541500    0.0004310000
  -0.0002849600    0.0003074600    0.0012319000
  -0.0000069600   -0.0000581800    0.0004484700
   0.0002820800    0.0000197200    0.0002582900
   0.0002229800    0.0001917900    0.0004792200
  -0.0001905300    0.0003891900    0.0011351500
  -0.0170653300   -0.0000080300   -0.0561160300
  -0.0016073500    0.0016731300   -0.0056762800
   0.0007299900    0.0001464100   -0.0007020100
   0.0017642400   -0.0000116100   -0.0000905000
   0.0063562500    0.0000207800    0.0022005500
   0.0002679500   -0.0051293600   -0.0010009500
  -0.0022310600   -0.0025984700   -0.0024948400
   0.0002528300    0.0005446400   -0.0010126400
   0.0006381500   -0.0000527300   -0.0002563200
   0.0011462400   -0.0010639500    0.0000161100
   0.0002003500   -0.0010488600   -0.0004099100
  -0.0002546000   -0.0005933600   -0.0005185100
  -0.0001984500    0.0000883800   -0.0003824500
   0.0000811600    0.0003207000   -0.0003027000
   0.0001714500   -0.0002703400   -0.0002102600
  -0.0002523400   -0.0004218700   -0.0007162600
   0.0002301600   -0.0002922500   -0.0003502800
   0.0003465300    0.0002256700   -0.0001719900
   0.0003786700    0.0012469700   -0.0000772900
  -0.0006935800    0.0005144600   -0.0005000700
  -0.0038286100    0.0003335600   -0.0049363400
   0.0003243300   -0.0003323300   -0.0010777600
   0.0007368500    0.0000678700   -0.0002610700
   0.0013520300    0.0009294600    0.0000402900
   0.0015985400    0.0057068200    0.0014462900
  -0.0584716000    0.0242457800   -0.0319198900
   0.0049191100    0.0000599300   -0.0007202700
   0.0015459400    0.0000262700   -0.0003847200
   0.0018544000    0.0003119900   -0.0009171900
  -0.0362039100   -0.0115421500   -0.0071829100
  -0.0163494900   -0.0139321500   -0.0199466300
   0.0039226800    0.0048392700   -0.0010048000
   0.0014155200    0.0004610100   -0.0003834800
   0.0009397900   -0.0002341000   -0.0003836200
   0.0006851100   -0.0029793200   -0.0019287100
  -0.0017904700    0.0012741000   -0.0010322400
   0.0000610900    0.0011956900   -0.0006005300
   0.0006000900    0.0011345100   -0.0003799200
   0.0003165700   -0.0000007400   -0.0002469200
   0.0001656900   -0.0008380900   -0.0003869200
   0.0001999100   -0.0007780200   -0.0004171100
   0.0002792300    0.0001497800   -0.0003282800
   0.0002437200    0.0007510000   -0.0003514100
  -0.0003964300    0.0001037700   -0.0003800800
  -0.0003534000   -0.0006340900   -0.0003869600
   0.0020135500   -0.0050598900   -0.0009350200
   0.0010614500   -0.0004507100   -0.0003170400
   0.0008017200    0.0003025700   -0.0003398400
   0.0007946800    0.0022168300   -0.0007003800
  -0.0044672100   -0.0018749300   -0.0014619600
   0.0001935200   -0.0002925100    0.0024793000
   0.0006041700   -0.0001386600    0.0011701900
   0.0004714400   -0.0000079400    0.0002688300
   0.0000820600    0.0000735700   -0.0000675600
  -0.0013748400   -0.0006122000    0.0016347900
  -0.0003137400    0.0009050900    0.0020572600
   0.0001244100    0.0005704400    0.0012356700
   0.0003816400    0.0001389800    0.0004519100
   0.0002324800   -0.0000613600    0.0001107300
  -0.0004402700   -0.0002450800    0.0002055100
  -0.0001829200    0.0000891000    0.0005219700
   0.0000215200    0.0003959500    0.0005815900
   0.0001046700    0.0003067300    0.0003891800
   0.0001047600   -0.0000002400    0.0001952000
  -0.0000373500   -0.0002169500    0.0001736600
   0.0000863600   -0.0002223000    0.0003515200
   0.0001276600    0.0000592000    0.0002538400
   0.0000720900    0.0002306400    0.0001865600
  -0.0001469400    0.0000718700    0.0002189100
  -0.0001394500   -0.0002400300    0.0003447800
   0.0002492300   -0.0004466400    0.0011406800
   0.0003901400   -0.0001513000    0.0003879300
   0.0002879000    0.0000927800    0.0001197300
  -0.0000688300    0.0000277900   -0.0000375000
  -0.0008641200   -0.0003255100    0.0007210600
  -0.0037573600    0.0020473700    0.0037806700
  -0.0002536400   -0.0001354500   -0.0004606000
   0.0005524900    0.0000216200    0.0000936000
   0.0012341600    0.0003517600    0.0011209800
   0.0014892000    0.0009855600    0.0037172000
  -0.0002145200   -0.0030306200    0.0037473700
  -0.0009600700    0.0000052400   -0.0002674800
   0.0001716800    0.0000261100   -0.0000955500
   0.0005733500   -0.0002130200    0.0002715500
   0.0006641000   -0.0009466400    0.0012035500
   0.0001470200   -0.0010147100    0.0005289200
  -0.0004102300   -0.0003790900    0.0001271400
  -0.0001137000    0.0001745300   -0.0000352600
   0.0001319200   -0.0000003700    0.0000449500
   0.0002482000   -0.0004299700    0.0002108700
   0.0000733900   -0.0002765500    0.0000234800
   0.0001067800   -0.0001510000    0.0000622600
   0.0001101800    0.0002554400    0.0001626500
  -0.0001257900    0.0003933400    0.0001477600
  -0.0001650900    0.0000472700    0.0000268800
  -0.0003486500    0.0003323900   -0.0002620400
   0.0002441000   -0.0000787400   -0.0000754600
   0.0005061300    0.0002311300    0.0002000300
   0.0005787600    0.0008480400    0.0009178300
  -0.0009723200    0.0009388200    0.0004666600

151  
  0.0072129729003353   0.0000000000000000   0.0069262559827823
   0.0048384200   -0.0000051500   -0.0092364000
   0.0020796300    0.0012741500    0.0013366600
  -0.0006416000   -0.0000081500    0.0002695700
  -0.0013203000    0.0003691300   -0.0003923500
  -0.0048014000    0.0030016200   -0.0021089200
  -0.0024698100    0.0022920100   -0.0013412700
   0.0046825400    0.0015290000    0.0005611200
  -0.0001449200   -0.0001462200    0.0003363000
  -0.0006684900    0.0000959300    0.0000033000
  -0.0012710400    0.0007952500   -0.0004417100
  -0.0003719300    0.0006555200   -0.0002147400
   0.0006415100    0.0007351600   -0.0000634600
   0.0002833200   -0.0002473500    0.0000898500
  -0.0001901100   -0.0002760800    0.0000550300
  -0.0003572800    0.0001798500   -0.0000488100
   0.0000545200    0.0002951900    0.0001165200
  -0.0000475700    0.0002920800    0.0000536200
  -0.0001370200   -0.0002392200   -0.0000525300
   0.0000288200   -0.0010643500   -0.0002408100
   0.0001074000   -0.0006497200   -0.0000528700