 2102

    1
0.0000000000e+00 0.0000000000e+00 0.0000000000e+00
0.0000000000e+00 0.0000000000e+00 0.0000000000e+00
     1      1      1
 1  1  1     0.0000000000e+00
 1  1  2     0.0000000000e+00
 1  1  3     0.0000000000e+00
 1  2  1     0.0000000000e+00
 1  2  2     0.0000000000e+00
 1  2  3    -2.6598430597e+01
 1  3  1     0.0000000000e+00
 1  3  2    -2.6598430597e+01
 1  3  3     0.0000000000e+00
 2  1  1     0.0000000000e+00
 2  1  2     0.0000000000e+00
 2  1  3    -2.6598430597e+01
 2  2  1     0.0000000000e+00
 2  2  2     0.0000000000e+00
 2  2  3     0.0000000000e+00
 2  3  1    -2.6598430597e+01
 2  3  2     0.0000000000e+00
 2  3  3     0.0000000000e+00
 3  1  1     0.0000000000e+00
 3  1  2    -2.6598430597e+01
 3  1  3     0.0000000000e+00
 3  2  1    -2.6598430597e+01
 3  2  2     0.0000000000e+00
 3  2  3     0.0000000000e+00
 3  3  1     0.0000000000e+00
 3  3  2     0.0000000000e+00
 3  3  3     0.0000000000e+00

    2
0.0000000000e+00 0.0000000000e+00 0.0000000000e+00
0.0000000000e+00 0.0000000000e+00 0.0000000000e+00
     1      1      2
 1  1  1     2.4438336502e+00
 1  1  2    -4.6612883150e+00
 1  1  3    -4.6612883150e+00
 1  2  1    -4.8078539683e+00
 1  2  2     4.8078539683e+00
 1  2  3     6.7774849558e+00
 1  3  1    -4.8078539683e+00
 1  3  2     6.7774849558e+00
 1  3  3     4.8078539683e+00
 2  1  1    -4.8078539683e+00
 2  1  2     4.8078539683e+00
 2  1  3     6.7774849558e+00
 2  2  1     4.6612883150e+00
 2  2  2    -2.4438336502e+00
 2  2  3    -4.6612883150e+00
 2  3  1     6.7774849558e+00
 2  3  2    -4.8078539683e+00
 2  3  3    -4.8078539683e+00
 3  1  1    -4.8078539683e+00
 3  1  2     6.7774849558e+00
 3  1  3     4.8078539683e+00
 3  2  1     6.7774849558e+00
 3  2  2    -4.8078539683e+00
 3  2  3    -4.8078539683e+00
 3  3  1     4.6612883150e+00
 3  3  2    -4.6612883150e+00
 3  3  3    -2.4438336502e+00

    3
0.0000000000e+00 0.0000000000e+00 0.0000000000e+00
-2.8428967832e+00 0.0000000000e+00 2.8428967832e+00
     1      1      1
 1  1  1     2.0375993349e-01
 1  1  2    -4.8861038030e-02
 1  1  3    -1.6354690521e-01
 1  2  1    -6.0910655055e-02
 1  2  2     9.0439831235e-02
 1  2  3    -8.7020415291e-02
 1  3  1    -1.9516062451e-01
 1  3  2     7.3024074236e-02
 1  3  3     1.9516062451e-01
 2  1  1    -6.0910655055e-02
 2  1  2     9.0439831235e-02
 2  1  3    -8.7020415291e-02
 2  2  1    -5.0867114388e-02
 2  2  2     2.7962495278e-01
 2  2  3     5.0867114388e-02
 2  3  1    -8.7020415291e-02
 2  3  2    -9.0439831235e-02
 2  3  3    -6.0910655055e-02
 3  1  1    -1.9516062451e-01
 3  1  2     7.3024074236e-02
 3  1  3     1.9516062451e-01
 3  2  1    -8.7020415291e-02
 3  2  2    -9.0439831235e-02
 3  2  3    -6.0910655055e-02
 3  3  1     1.6354690521e-01
 3  3  2    -4.8861038030e-02
 3  3  3    -2.0375993349e-01

    4
0.0000000000e+00 0.0000000000e+00 0.0000000000e+00
-2.8428967832e+00 0.0000000000e+00 2.8428967832e+00
     1      1      2
 1  1  1     5.0779289418e-02
 1  1  2     1.2054671359e-02
 1  1  3    -5.5383694242e-02
 1  2  1    -1.7654436957e-02
 1  2  2    -2.0788428384e-02
 1  2  3    -2.5830516573e-03
 1  3  1    -3.8966777397e-02
 1  3  2    -3.4211097695e-02
 1  3  3     3.8966777397e-02
 2  1  1    -1.7654436957e-02
 2  1  2    -2.0788428384e-02
 2  1  3    -2.5830516573e-03
 2  2  1     9.9699338288e-03
 2  2  2    -1.8190555576e-01
 2  2  3    -9.9699338288e-03
 2  3  1    -2.5830516573e-03
 2  3  2     2.0788428384e-02
 2  3  3    -1.7654436957e-02
 3  1  1    -3.8966777397e-02
 3  1  2    -3.4211097695e-02
 3  1  3     3.8966777397e-02
 3  2  1    -2.5830516573e-03
 3  2  2     2.0788428384e-02
 3  2  3    -1.7654436957e-02
 3  3  1     5.5383694242e-02
 3  3  2     1.2054671359e-02
 3  3  3    -5.0779289418e-02

    5
0.0000000000e+00 0.0000000000e+00 0.0000000000e+00
5.6857935664e+00 0.0000000000e+00 -5.6857935664e+00
     1      1      2
 1  1  1    -5.0779289418e-02
 1  1  2     1.2054671359e-02
 1  1  3     5.5383694242e-02
 1  2  1    -1.7654436957e-02
 1  2  2     2.0788428384e-02
 1  2  3    -2.5830516573e-03
 1  3  1     3.8966777397e-02
 1  3  2    -3.4211097695e-02
 1  3  3    -3.8966777397e-02
 2  1  1    -1.7654436957e-02
 2  1  2     2.0788428384e-02
 2  1  3    -2.5830516573e-03
 2  2  1    -9.9699338288e-03
 2  2  2    -1.8190555576e-01
 2  2  3     9.9699338288e-03
 2  3  1    -2.5830516573e-03
 2  3  2    -2.0788428384e-02
 2  3  3    -1.7654436957e-02
 3  1  1     3.8966777397e-02
 3  1  2    -3.4211097695e-02
 3  1  3    -3.8966777397e-02
 3  2  1    -2.5830516573e-03
 3  2  2    -2.0788428384e-02
 3  2  3    -1.7654436957e-02
 3  3  1    -5.5383694242e-02
 3  3  2     1.2054671359e-02
 3  3  3     5.0779289418e-02

    6
0.0000000000e+00 0.0000000000e+00 0.0000000000e+00
2.8428967832e+00 0.0000000000e+00 -2.8428967832e+00
     1      1      1
 1  1  1    -2.0375993349e-01
 1  1  2    -4.8861038030e-02
 1  1  3     1.6354690521e-01
 1  2  1    -6.0910655055e-02
 1  2  2    -9.0439831235e-02
 1  2  3    -8.7020415291e-02
 1  3  1     1.9516062451e-01
 1  3  2     7.3024074236e-02
 1  3  3    -1.9516062451e-01
 2  1  1    -6.0910655055e-02
 2  1  2    -9.0439831235e-02
 2  1  3    -8.7020415291e-02
 2  2  1     5.0867114388e-02
 2  2  2     2.7962495278e-01
 2  2  3    -5.0867114388e-02
 2  3  1    -8.7020415291e-02
 2  3  2     9.0439831235e-02
 2  3  3    -6.0910655055e-02
 3  1  1     1.9516062451e-01
 3  1  2     7.3024074236e-02
 3  1  3    -1.9516062451e-01
 3  2  1    -8.7020415291e-02
 3  2  2     9.0439831235e-02
 3  2  3    -6.0910655055e-02
 3  3  1    -1.6354690521e-01
 3  3  2    -4.8861038030e-02
 3  3  3     2.0375993349e-01

    7
0.0000000000e+00 0.0000000000e+00 0.0000000000e+00
2.8428967832e+00 0.0000000000e+00 -2.8428967832e+00
     1      1      2
 1  1  1    -2.4438336502e+00
 1  1  2    -4.6612883150e+00
 1  1  3     4.6612883150e+00
 1  2  1    -4.8078539683e+00
 1  2  2    -4.8078539683e+00
 1  2  3     6.7774849558e+00
 1  3  1     4.8078539683e+00
 1  3  2     6.7774849558e+00
 1  3  3    -4.8078539683e+00
 2  1  1    -4.8078539683e+00
 2  1  2    -4.8078539683e+00
 2  1  3     6.7774849558e+00
 2  2  1    -4.6612883150e+00
 2  2  2    -2.4438336502e+00
 2  2  3     4.6612883150e+00
 2  3  1     6.7774849558e+00
 2  3  2     4.8078539683e+00
 2  3  3    -4.8078539683e+00
 3  1  1     4.8078539683e+00
 3  1  2     6.7774849558e+00
 3  1  3    -4.8078539683e+00
 3  2  1     6.7774849558e+00
 3  2  2     4.8078539683e+00
 3  2  3    -4.8078539683e+00
 3  3  1    -4.6612883150e+00
 3  3  2    -4.6612883150e+00
 3  3  3     2.4438336502e+00

    8
0.0000000000e+00 0.0000000000e+00 0.0000000000e+00
0.0000000000e+00 2.8428967832e+00 2.8428967832e+00
     1      1      1
 1  1  1    -2.7962495278e-01
 1  1  2     5.0867114388e-02
 1  1  3     5.0867114388e-02
 1  2  1    -9.0439831235e-02
 1  2  2     6.0910655055e-02
 1  2  3    -8.7020415291e-02
 1  3  1    -9.0439831235e-02
 1  3  2    -8.7020415291e-02
 1  3  3     6.0910655055e-02
 2  1  1    -9.0439831235e-02
 2  1  2     6.0910655055e-02
 2  1  3    -8.7020415291e-02
 2  2  1     4.8861038030e-02
 2  2  2    -2.0375993349e-01
 2  2  3    -1.6354690521e-01
 2  3  1     7.3024074236e-02
 2  3  2    -1.9516062451e-01
 2  3  3    -1.9516062451e-01
 3  1  1    -9.0439831235e-02
 3  1  2    -8.7020415291e-02
 3  1  3     6.0910655055e-02
 3  2  1     7.3024074236e-02
 3  2  2    -1.9516062451e-01
 3  2  3    -1.9516062451e-01
 3  3  1     4.8861038030e-02
 3  3  2    -1.6354690521e-01
 3  3  3    -2.0375993349e-01

    9
0.0000000000e+00 0.0000000000e+00 0.0000000000e+00
0.0000000000e+00 2.8428967832e+00 2.8428967832e+00
     1      1      2
 1  1  1     1.8190555576e-01
 1  1  2    -9.9699338288e-03
 1  1  3    -9.9699338288e-03
 1  2  1     2.0788428384e-02
 1  2  2     1.7654436957e-02
 1  2  3    -2.5830516573e-03
 1  3  1     2.0788428384e-02
 1  3  2    -2.5830516573e-03
 1  3  3     1.7654436957e-02
 2  1  1     2.0788428384e-02
 2  1  2     1.7654436957e-02
 2  1  3    -2.5830516573e-03
 2  2  1    -1.2054671359e-02
 2  2  2    -5.0779289418e-02
 2  2  3    -5.5383694242e-02
 2  3  1    -3.4211097695e-02
 2  3  2    -3.8966777397e-02
 2  3  3    -3.8966777397e-02
 3  1  1     2.0788428384e-02
 3  1  2    -2.5830516573e-03
 3  1  3     1.7654436957e-02
 3  2  1    -3.4211097695e-02
 3  2  2    -3.8966777397e-02
 3  2  3    -3.8966777397e-02
 3  3  1    -1.2054671359e-02
 3  3  2    -5.5383694242e-02
 3  3  3    -5.0779289418e-02

   10
0.0000000000e+00 0.0000000000e+00 0.0000000000e+00
5.6857935664e+00 2.8428967832e+00 -2.8428967832e+00
     1      1      2
 1  1  1    -5.0779289418e-02
 1  1  2    -5.5383694242e-02
 1  1  3    -1.2054671359e-02
 1  2  1    -3.8966777397e-02
 1  2  2    -3.8966777397e-02
 1  2  3    -3.4211097695e-02
 1  3  1     1.7654436957e-02
 1  3  2    -2.5830516573e-03
 1  3  3     2.0788428384e-02
 2  1  1    -3.8966777397e-02
 2  1  2    -3.8966777397e-02
 2  1  3    -3.4211097695e-02
 2  2  1    -5.5383694242e-02
 2  2  2    -5.0779289418e-02
 2  2  3    -1.2054671359e-02
 2  3  1    -2.5830516573e-03
 2  3  2     1.7654436957e-02
 2  3  3     2.0788428384e-02
 3  1  1     1.7654436957e-02
 3  1  2    -2.5830516573e-03
 3  1  3     2.0788428384e-02
 3  2  1    -2.5830516573e-03
 3  2  2     1.7654436957e-02
 3  2  3     2.0788428384e-02
 3  3  1    -9.9699338288e-03
 3  3  2    -9.9699338288e-03
 3  3  3     1.8190555576e-01

   11
0.0000000000e+00 0.0000000000e+00 0.0000000000e+00
2.8428967832e+00 2.8428967832e+00 0.0000000000e+00
     1      1      1
 1  1  1    -2.0375993349e-01
 1  1  2    -1.6354690521e-01
 1  1  3     4.8861038030e-02
 1  2  1    -1.9516062451e-01
 1  2  2    -1.9516062451e-01
 1  2  3     7.3024074236e-02
 1  3  1     6.0910655055e-02
 1  3  2    -8.7020415291e-02
 1  3  3    -9.0439831235e-02
 2  1  1    -1.9516062451e-01
 2  1  2    -1.9516062451e-01
 2  1  3     7.3024074236e-02
 2  2  1    -1.6354690521e-01
 2  2  2    -2.0375993349e-01
 2  2  3     4.8861038030e-02
 2  3  1    -8.7020415291e-02
 2  3  2     6.0910655055e-02
 2  3  3    -9.0439831235e-02
 3  1  1     6.0910655055e-02
 3  1  2    -8.7020415291e-02
 3  1  3    -9.0439831235e-02
 3  2  1    -8.7020415291e-02
 3  2  2     6.0910655055e-02
 3  2  3    -9.0439831235e-02
 3  3  1     5.0867114388e-02
 3  3  2     5.0867114388e-02
 3  3  3    -2.7962495278e-01

   12
0.0000000000e+00 0.0000000000e+00 0.0000000000e+00
2.8428967832e+00 2.8428967832e+00 0.0000000000e+00
     1      1      2
 1  1  1     4.2423203818e-02
 1  1  2     1.1583162201e-02
 1  1  3     4.6280821942e-02
 1  2  1     7.3186962227e-03
 1  2  2     1.0049554839e-02
 1  2  3     1.2177333018e-02
 1  3  1    -3.8595764497e-02
 1  3  2    -1.3701134056e-02
 1  3  3    -3.8595764497e-02
 2  1  1     7.3186962227e-03
 2  1  2     1.0049554839e-02
 2  1  3     1.2177333018e-02
 2  2  1     1.6576356590e-02
 2  2  2     2.5711032617e-02
 2  2  3     1.6576356590e-02
 2  3  1     1.2177333018e-02
 2  3  2     1.0049554839e-02
 2  3  3     7.3186962227e-03
 3  1  1    -3.8595764497e-02
 3  1  2    -1.3701134056e-02
 3  1  3    -3.8595764497e-02
 3  2  1     1.2177333018e-02
 3  2  2     1.0049554839e-02
 3  2  3     7.3186962227e-03
 3  3  1     4.6280821942e-02
 3  3  2     1.1583162201e-02
 3  3  3     4.2423203818e-02

   13
0.0000000000e+00 0.0000000000e+00 0.0000000000e+00
0.0000000000e+00 -5.6857935664e+00 -5.6857935664e+00
     1      1      2
 1  1  1     1.8190555576e-01
 1  1  2     9.9699338288e-03
 1  1  3     9.9699338288e-03
 1  2  1    -2.0788428384e-02
 1  2  2     1.7654436957e-02
 1  2  3    -2.5830516573e-03
 1  3  1    -2.0788428384e-02
 1  3  2    -2.5830516573e-03
 1  3  3     1.7654436957e-02
 2  1  1    -2.0788428384e-02
 2  1  2     1.7654436957e-02
 2  1  3    -2.5830516573e-03
 2  2  1    -1.2054671359e-02
 2  2  2     5.0779289418e-02
 2  2  3     5.5383694242e-02
 2  3  1    -3.4211097695e-02
 2  3  2     3.8966777397e-02
 2  3  3     3.8966777397e-02
 3  1  1    -2.0788428384e-02
 3  1  2    -2.5830516573e-03
 3  1  3     1.7654436957e-02
 3  2  1    -3.4211097695e-02
 3  2  2     3.8966777397e-02
 3  2  3     3.8966777397e-02
 3  3  1    -1.2054671359e-02
 3  3  2     5.5383694242e-02
 3  3  3     5.0779289418e-02

   14
0.0000000000e+00 0.0000000000e+00 0.0000000000e+00
-2.8428967832e+00 -5.6857935664e+00 -2.8428967832e+00
     1      1      2
 1  1  1     5.0779289418e-02
 1  1  2     5.5383694242e-02
 1  1  3    -1.2054671359e-02
 1  2  1     3.8966777397e-02
 1  2  2     3.8966777397e-02
 1  2  3    -3.4211097695e-02
 1  3  1     1.7654436957e-02
 1  3  2    -2.5830516573e-03
 1  3  3    -2.0788428384e-02
 2  1  1     3.8966777397e-02
 2  1  2     3.8966777397e-02
 2  1  3    -3.4211097695e-02
 2  2  1     5.5383694242e-02
 2  2  2     5.0779289418e-02
 2  2  3    -1.2054671359e-02
 2  3  1    -2.5830516573e-03
 2  3  2     1.7654436957e-02
 2  3  3    -2.0788428384e-02
 3  1  1     1.7654436957e-02
 3  1  2    -2.5830516573e-03
 3  1  3    -2.0788428384e-02
 3  2  1    -2.5830516573e-03
 3  2  2     1.7654436957e-02
 3  2  3    -2.0788428384e-02
 3  3  1     9.9699338288e-03
 3  3  2     9.9699338288e-03
 3  3  3     1.8190555576e-01

   15
0.0000000000e+00 0.0000000000e+00 0.0000000000e+00
0.0000000000e+00 -2.8428967832e+00 -2.8428967832e+00
     1      1      1
 1  1  1    -2.7962495278e-01
 1  1  2    -5.0867114388e-02
 1  1  3    -5.0867114388e-02
 1  2  1     9.0439831235e-02
 1  2  2     6.0910655055e-02
 1  2  3    -8.7020415291e-02
 1  3  1     9.0439831235e-02
 1  3  2    -8.7020415291e-02
 1  3  3     6.0910655055e-02
 2  1  1     9.0439831235e-02
 2  1  2     6.0910655055e-02
 2  1  3    -8.7020415291e-02
 2  2  1     4.8861038030e-02
 2  2  2     2.0375993349e-01
 2  2  3     1.6354690521e-01
 2  3  1     7.3024074236e-02
 2  3  2     1.9516062451e-01
 2  3  3     1.9516062451e-01
 3  1  1     9.0439831235e-02
 3  1  2    -8.7020415291e-02
 3  1  3     6.0910655055e-02
 3  2  1     7.3024074236e-02
 3  2  2     1.9516062451e-01
 3  2  3     1.9516062451e-01
 3  3  1     4.8861038030e-02
 3  3  2     1.6354690521e-01
 3  3  3     2.0375993349e-01

   16
0.0000000000e+00 0.0000000000e+00 0.0000000000e+00
0.0000000000e+00 -2.8428967832e+00 -2.8428967832e+00
     1      1      2
 1  1  1     2.4438336502e+00
 1  1  2     4.6612883150e+00
 1  1  3     4.6612883150e+00
 1  2  1     4.8078539683e+00
 1  2  2     4.8078539683e+00
 1  2  3     6.7774849558e+00
 1  3  1     4.8078539683e+00
 1  3  2     6.7774849558e+00
 1  3  3     4.8078539683e+00
 2  1  1     4.8078539683e+00
 2  1  2     4.8078539683e+00
 2  1  3     6.7774849558e+00
 2  2  1     4.6612883150e+00
 2  2  2     2.4438336502e+00
 2  2  3     4.6612883150e+00
 2  3  1     6.7774849558e+00
 2  3  2     4.8078539683e+00
 2  3  3     4.8078539683e+00
 3  1  1     4.8078539683e+00
 3  1  2     6.7774849558e+00
 3  1  3     4.8078539683e+00
 3  2  1     6.7774849558e+00
 3  2  2     4.8078539683e+00
 3  2  3     4.8078539683e+00
 3  3  1     4.6612883150e+00
 3  3  2     4.6612883150e+00
 3  3  3     2.4438336502e+00

   17
0.0000000000e+00 0.0000000000e+00 0.0000000000e+00
-2.8428967832e+00 -2.8428967832e+00 0.0000000000e+00
     1      1      1
 1  1  1     2.0375993349e-01
 1  1  2     1.6354690521e-01
 1  1  3     4.8861038030e-02
 1  2  1     1.9516062451e-01
 1  2  2     1.9516062451e-01
 1  2  3     7.3024074236e-02
 1  3  1     6.0910655055e-02
 1  3  2    -8.7020415291e-02
 1  3  3     9.0439831235e-02
 2  1  1     1.9516062451e-01
 2  1  2     1.9516062451e-01
 2  1  3     7.3024074236e-02
 2  2  1     1.6354690521e-01
 2  2  2     2.0375993349e-01
 2  2  3     4.8861038030e-02
 2  3  1    -8.7020415291e-02
 2  3  2     6.0910655055e-02
 2  3  3     9.0439831235e-02
 3  1  1     6.0910655055e-02
 3  1  2    -8.7020415291e-02
 3  1  3     9.0439831235e-02
 3  2  1    -8.7020415291e-02
 3  2  2     6.0910655055e-02
 3  2  3     9.0439831235e-02
 3  3  1    -5.0867114388e-02
 3  3  2    -5.0867114388e-02
 3  3  3    -2.7962495278e-01

   18
0.0000000000e+00 0.0000000000e+00 0.0000000000e+00
-2.8428967832e+00 -2.8428967832e+00 0.0000000000e+00
     1      1      2
 1  1  1    -2.5711032617e-02
 1  1  2    -1.6576356590e-02
 1  1  3     1.6576356590e-02
 1  2  1    -1.0049554839e-02
 1  2  2    -7.3186962227e-03
 1  2  3     1.2177333018e-02
 1  3  1     1.0049554839e-02
 1  3  2     1.2177333018e-02
 1  3  3    -7.3186962227e-03
 2  1  1    -1.0049554839e-02
 2  1  2    -7.3186962227e-03
 2  1  3     1.2177333018e-02
 2  2  1    -1.1583162201e-02
 2  2  2    -4.2423203818e-02
 2  2  3     4.6280821942e-02
 2  3  1    -1.3701134056e-02
 2  3  2    -3.8595764497e-02
 2  3  3     3.8595764497e-02
 3  1  1     1.0049554839e-02
 3  1  2     1.2177333018e-02
 3  1  3    -7.3186962227e-03
 3  2  1    -1.3701134056e-02
 3  2  2    -3.8595764497e-02
 3  2  3     3.8595764497e-02
 3  3  1    -1.1583162201e-02
 3  3  2    -4.6280821942e-02
 3  3  3     4.2423203818e-02

   19
0.0000000000e+00 0.0000000000e+00 0.0000000000e+00
2.8428967832e+00 -2.8428967832e+00 -5.6857935664e+00
     1      1      2
 1  1  1     4.2423203818e-02
 1  1  2    -4.6280821942e-02
 1  1  3    -1.1583162201e-02
 1  2  1     3.8595764497e-02
 1  2  2    -3.8595764497e-02
 1  2  3    -1.3701134056e-02
 1  3  1    -7.3186962227e-03
 1  3  2     1.2177333018e-02
 1  3  3     1.0049554839e-02
 2  1  1     3.8595764497e-02
 2  1  2    -3.8595764497e-02
 2  1  3    -1.3701134056e-02
 2  2  1     4.6280821942e-02
 2  2  2    -4.2423203818e-02
 2  2  3    -1.1583162201e-02
 2  3  1     1.2177333018e-02
 2  3  2    -7.3186962227e-03
 2  3  3    -1.0049554839e-02
 3  1  1    -7.3186962227e-03
 3  1  2     1.2177333018e-02
 3  1  3     1.0049554839e-02
 3  2  1     1.2177333018e-02
 3  2  2    -7.3186962227e-03
 3  2  3    -1.0049554839e-02
 3  3  1     1.6576356590e-02
 3  3  2    -1.6576356590e-02
 3  3  3    -2.5711032617e-02

   20
0.0000000000e+00 0.0000000000e+00 0.0000000000e+00
-2.8428967832e+00 2.8428967832e+00 0.0000000000e+00
     1      1      1
 1  1  1     2.0375993349e-01
 1  1  2    -1.6354690521e-01
 1  1  3    -4.8861038030e-02
 1  2  1    -1.9516062451e-01
 1  2  2     1.9516062451e-01
 1  2  3     7.3024074236e-02
 1  3  1    -6.0910655055e-02
 1  3  2    -8.7020415291e-02
 1  3  3     9.0439831235e-02
 2  1  1    -1.9516062451e-01
 2  1  2     1.9516062451e-01
 2  1  3     7.3024074236e-02
 2  2  1     1.6354690521e-01
 2  2  2    -2.0375993349e-01
 2  2  3    -4.8861038030e-02
 2  3  1    -8.7020415291e-02
 2  3  2    -6.0910655055e-02
 2  3  3    -9.0439831235e-02
 3  1  1    -6.0910655055e-02
 3  1  2    -8.7020415291e-02
 3  1  3     9.0439831235e-02
 3  2  1    -8.7020415291e-02
 3  2  2    -6.0910655055e-02
 3  2  3    -9.0439831235e-02
 3  3  1    -5.0867114388e-02
 3  3  2     5.0867114388e-02
 3  3  3     2.7962495278e-01

   21
0.0000000000e+00 0.0000000000e+00 0.0000000000e+00
-2.8428967832e+00 2.8428967832e+00 0.0000000000e+00
     1      1      2
 1  1  1     5.0779289418e-02
 1  1  2    -5.5383694242e-02
 1  1  3     1.2054671359e-02
 1  2  1    -3.8966777397e-02
 1  2  2     3.8966777397e-02
 1  2  3    -3.4211097695e-02
 1  3  1    -1.7654436957e-02
 1  3  2    -2.5830516573e-03
 1  3  3    -2.0788428384e-02
 2  1  1    -3.8966777397e-02
 2  1  2     3.8966777397e-02
 2  1  3    -3.4211097695e-02
 2  2  1     5.5383694242e-02
 2  2  2    -5.0779289418e-02
 2  2  3     1.2054671359e-02
 2  3  1    -2.5830516573e-03
 2  3  2    -1.7654436957e-02
 2  3  3     2.0788428384e-02
 3  1  1    -1.7654436957e-02
 3  1  2    -2.5830516573e-03
 3  1  3    -2.0788428384e-02
 3  2  1    -2.5830516573e-03
 3  2  2    -1.7654436957e-02
 3  2  3     2.0788428384e-02
 3  3  1     9.9699338288e-03
 3  3  2    -9.9699338288e-03
 3  3  3    -1.8190555576e-01

   22
0.0000000000e+00 0.0000000000e+00 0.0000000000e+00
2.8428967832e+00 2.8428967832e+00 -5.6857935664e+00
     1      1      2
 1  1  1    -1.8190555576e-01
 1  1  2    -9.9699338288e-03
 1  1  3     9.9699338288e-03
 1  2  1     2.0788428384e-02
 1  2  2    -1.7654436957e-02
 1  2  3    -2.5830516573e-03
 1  3  1    -2.0788428384e-02
 1  3  2    -2.5830516573e-03
 1  3  3    -1.7654436957e-02
 2  1  1     2.0788428384e-02
 2  1  2    -1.7654436957e-02
 2  1  3    -2.5830516573e-03
 2  2  1     1.2054671359e-02
 2  2  2    -5.0779289418e-02
 2  2  3     5.5383694242e-02
 2  3  1    -3.4211097695e-02
 2  3  2     3.8966777397e-02
 2  3  3    -3.8966777397e-02
 3  1  1    -2.0788428384e-02
 3  1  2    -2.5830516573e-03
 3  1  3    -1.7654436957e-02
 3  2  1    -3.4211097695e-02
 3  2  2     3.8966777397e-02
 3  2  3    -3.8966777397e-02
 3  3  1     1.2054671359e-02
 3  3  2    -5.5383694242e-02
 3  3  3     5.0779289418e-02

   23
0.0000000000e+00 0.0000000000e+00 0.0000000000e+00
0.0000000000e+00 2.8428967832e+00 -2.8428967832e+00
     1      1      1
 1  1  1     2.7962495278e-01
 1  1  2     5.0867114388e-02
 1  1  3    -5.0867114388e-02
 1  2  1    -9.0439831235e-02
 1  2  2    -6.0910655055e-02
 1  2  3    -8.7020415291e-02
 1  3  1     9.0439831235e-02
 1  3  2    -8.7020415291e-02
 1  3  3    -6.0910655055e-02
 2  1  1    -9.0439831235e-02
 2  1  2    -6.0910655055e-02
 2  1  3    -8.7020415291e-02
 2  2  1    -4.8861038030e-02
 2  2  2    -2.0375993349e-01
 2  2  3     1.6354690521e-01
 2  3  1     7.3024074236e-02
 2  3  2     1.9516062451e-01
 2  3  3    -1.9516062451e-01
 3  1  1     9.0439831235e-02
 3  1  2    -8.7020415291e-02
 3  1  3    -6.0910655055e-02
 3  2  1     7.3024074236e-02
 3  2  2     1.9516062451e-01
 3  2  3    -1.9516062451e-01
 3  3  1    -4.8861038030e-02
 3  3  2    -1.6354690521e-01
 3  3  3     2.0375993349e-01

   24
0.0000000000e+00 0.0000000000e+00 0.0000000000e+00
0.0000000000e+00 2.8428967832e+00 -2.8428967832e+00
     1      1      2
 1  1  1    -4.2423203818e-02
 1  1  2     1.1583162201e-02
 1  1  3    -4.6280821942e-02
 1  2  1     7.3186962227e-03
 1  2  2    -1.0049554839e-02
 1  2  3     1.2177333018e-02
 1  3  1     3.8595764497e-02
 1  3  2    -1.3701134056e-02
 1  3  3     3.8595764497e-02
 2  1  1     7.3186962227e-03
 2  1  2    -1.0049554839e-02
 2  1  3     1.2177333018e-02
 2  2  1    -1.6576356590e-02
 2  2  2     2.5711032617e-02
 2  2  3    -1.6576356590e-02
 2  3  1     1.2177333018e-02
 2  3  2    -1.0049554839e-02
 2  3  3     7.3186962227e-03
 3  1  1     3.8595764497e-02
 3  1  2    -1.3701134056e-02
 3  1  3     3.8595764497e-02
 3  2  1     1.2177333018e-02
 3  2  2    -1.0049554839e-02
 3  2  3     7.3186962227e-03
 3  3  1    -4.6280821942e-02
 3  3  2     1.1583162201e-02
 3  3  3    -4.2423203818e-02

   25
0.0000000000e+00 0.0000000000e+00 0.0000000000e+00
0.0000000000e+00 5.6857935664e+00 0.0000000000e+00
     1      1      1
 1  1  1     0.0000000000e+00
 1  1  2    -8.0698919691e-03
 1  1  3     0.0000000000e+00
 1  2  1     7.0308016200e-03
 1  2  2     0.0000000000e+00
 1  2  3     5.1695269300e-03
 1  3  1     0.0000000000e+00
 1  3  2    -6.6125554671e-03
 1  3  3     0.0000000000e+00
 2  1  1     7.0308016200e-03
 2  1  2     0.0000000000e+00
 2  1  3     5.1695269300e-03
 2  2  1     0.0000000000e+00
 2  2  2    -6.4277581542e-04
 2  2  3     0.0000000000e+00
 2  3  1     5.1695269300e-03
 2  3  2     0.0000000000e+00
 2  3  3     7.0308016200e-03
 3  1  1     0.0000000000e+00
 3  1  2    -6.6125554671e-03
 3  1  3     0.0000000000e+00
 3  2  1     5.1695269300e-03
 3  2  2     0.0000000000e+00
 3  2  3     7.0308016200e-03
 3  3  1     0.0000000000e+00
 3  3  2    -8.0698919691e-03
 3  3  3     0.0000000000e+00

   26
0.0000000000e+00 0.0000000000e+00 0.0000000000e+00
-2.8428967832e+00 -2.8428967832e+00 -5.6857935664e+00
     1      1      2
 1  1  1     5.0779289418e-02
 1  1  2    -1.2054671359e-02
 1  1  3     5.5383694242e-02
 1  2  1     1.7654436957e-02
 1  2  2    -2.0788428384e-02
 1  2  3    -2.5830516573e-03
 1  3  1     3.8966777397e-02
 1  3  2    -3.4211097695e-02
 1  3  3     3.8966777397e-02
 2  1  1     1.7654436957e-02
 2  1  2    -2.0788428384e-02
 2  1  3    -2.5830516573e-03
 2  2  1     9.9699338288e-03
 2  2  2     1.8190555576e-01
 2  2  3     9.9699338288e-03
 2  3  1    -2.5830516573e-03
 2  3  2    -2.0788428384e-02
 2  3  3     1.7654436957e-02
 3  1  1     3.8966777397e-02
 3  1  2    -3.4211097695e-02
 3  1  3     3.8966777397e-02
 3  2  1    -2.5830516573e-03
 3  2  2    -2.0788428384e-02
 3  2  3     1.7654436957e-02
 3  3  1     5.5383694242e-02
 3  3  2    -1.2054671359e-02
 3  3  3     5.0779289418e-02

   27
0.0000000000e+00 0.0000000000e+00 0.0000000000e+00
-2.8428967832e+00 0.0000000000e+00 -2.8428967832e+00
     1      1      1
 1  1  1     2.0375993349e-01
 1  1  2     4.8861038030e-02
 1  1  3     1.6354690521e-01
 1  2  1     6.0910655055e-02
 1  2  2     9.0439831235e-02
 1  2  3    -8.7020415291e-02
 1  3  1     1.9516062451e-01
 1  3  2     7.3024074236e-02
 1  3  3     1.9516062451e-01
 2  1  1     6.0910655055e-02
 2  1  2     9.0439831235e-02
 2  1  3    -8.7020415291e-02
 2  2  1    -5.0867114388e-02
 2  2  2    -2.7962495278e-01
 2  2  3    -5.0867114388e-02
 2  3  1    -8.7020415291e-02
 2  3  2     9.0439831235e-02
 2  3  3     6.0910655055e-02
 3  1  1     1.9516062451e-01
 3  1  2     7.3024074236e-02
 3  1  3     1.9516062451e-01
 3  2  1    -8.7020415291e-02
 3  2  2     9.0439831235e-02
 3  2  3     6.0910655055e-02
 3  3  1     1.6354690521e-01
 3  3  2     4.8861038030e-02
 3  3  3     2.0375993349e-01

   28
0.0000000000e+00 0.0000000000e+00 0.0000000000e+00
-2.8428967832e+00 0.0000000000e+00 -2.8428967832e+00
     1      1      2
 1  1  1    -2.5711032617e-02
 1  1  2     1.6576356590e-02
 1  1  3    -1.6576356590e-02
 1  2  1     1.0049554839e-02
 1  2  2    -7.3186962227e-03
 1  2  3     1.2177333018e-02
 1  3  1    -1.0049554839e-02
 1  3  2     1.2177333018e-02
 1  3  3    -7.3186962227e-03
 2  1  1     1.0049554839e-02
 2  1  2    -7.3186962227e-03
 2  1  3     1.2177333018e-02
 2  2  1    -1.1583162201e-02
 2  2  2     4.2423203818e-02
 2  2  3    -4.6280821942e-02
 2  3  1    -1.3701134056e-02
 2  3  2     3.8595764497e-02
 2  3  3    -3.8595764497e-02
 3  1  1    -1.0049554839e-02
 3  1  2     1.2177333018e-02
 3  1  3    -7.3186962227e-03
 3  2  1    -1.3701134056e-02
 3  2  2     3.8595764497e-02
 3  2  3    -3.8595764497e-02
 3  3  1    -1.1583162201e-02
 3  3  2     4.6280821942e-02
 3  3  3    -4.2423203818e-02

   29
0.0000000000e+00 0.0000000000e+00 0.0000000000e+00
-5.6857935664e+00 0.0000000000e+00 0.0000000000e+00
     1      1      1
 1  1  1     6.4277581542e-04
 1  1  2     0.0000000000e+00
 1  1  3     0.0000000000e+00
 1  2  1     0.0000000000e+00
 1  2  2    -7.0308016200e-03
 1  2  3     5.1695269300e-03
 1  3  1     0.0000000000e+00
 1  3  2     5.1695269300e-03
 1  3  3    -7.0308016200e-03
 2  1  1     0.0000000000e+00
 2  1  2    -7.0308016200e-03
 2  1  3     5.1695269300e-03
 2  2  1     8.0698919691e-03
 2  2  2     0.0000000000e+00
 2  2  3     0.0000000000e+00
 2  3  1    -6.6125554671e-03
 2  3  2     0.0000000000e+00
 2  3  3     0.0000000000e+00
 3  1  1     0.0000000000e+00
 3  1  2     5.1695269300e-03
 3  1  3    -7.0308016200e-03
 3  2  1    -6.6125554671e-03
 3  2  2     0.0000000000e+00
 3  2  3     0.0000000000e+00
 3  3  1     8.0698919691e-03
 3  3  2     0.0000000000e+00
 3  3  3     0.0000000000e+00

   30
0.0000000000e+00 0.0000000000e+00 0.0000000000e+00
0.0000000000e+00 0.0000000000e+00 -5.6857935664e+00
     1      1      1
 1  1  1     0.0000000000e+00
 1  1  2     0.0000000000e+00
 1  1  3     8.0698919691e-03
 1  2  1     0.0000000000e+00
 1  2  2     0.0000000000e+00
 1  2  3    -6.6125554671e-03
 1  3  1    -7.0308016200e-03
 1  3  2     5.1695269300e-03
 1  3  3     0.0000000000e+00
 2  1  1     0.0000000000e+00
 2  1  2     0.0000000000e+00
 2  1  3    -6.6125554671e-03
 2  2  1     0.0000000000e+00
 2  2  2     0.0000000000e+00
 2  2  3     8.0698919691e-03
 2  3  1     5.1695269300e-03
 2  3  2    -7.0308016200e-03
 2  3  3     0.0000000000e+00
 3  1  1    -7.0308016200e-03
 3  1  2     5.1695269300e-03
 3  1  3     0.0000000000e+00
 3  2  1     5.1695269300e-03
 3  2  2    -7.0308016200e-03
 3  2  3     0.0000000000e+00
 3  3  1     0.0000000000e+00
 3  3  2     0.0000000000e+00
 3  3  3     6.4277581542e-04

   31
0.0000000000e+00 0.0000000000e+00 0.0000000000e+00
0.0000000000e+00 0.0000000000e+00 -5.6857935664e+00
     1      1      2
 1  1  1    -4.2423203818e-02
 1  1  2     4.6280821942e-02
 1  1  3    -1.1583162201e-02
 1  2  1    -3.8595764497e-02
 1  2  2     3.8595764497e-02
 1  2  3    -1.3701134056e-02
 1  3  1    -7.3186962227e-03
 1  3  2     1.2177333018e-02
 1  3  3    -1.0049554839e-02
 2  1  1    -3.8595764497e-02
 2  1  2     3.8595764497e-02
 2  1  3    -1.3701134056e-02
 2  2  1    -4.6280821942e-02
 2  2  2     4.2423203818e-02
 2  2  3    -1.1583162201e-02
 2  3  1     1.2177333018e-02
 2  3  2    -7.3186962227e-03
 2  3  3     1.0049554839e-02
 3  1  1    -7.3186962227e-03
 3  1  2     1.2177333018e-02
 3  1  3    -1.0049554839e-02
 3  2  1     1.2177333018e-02
 3  2  2    -7.3186962227e-03
 3  2  3     1.0049554839e-02
 3  3  1    -1.6576356590e-02
 3  3  2     1.6576356590e-02
 3  3  3    -2.5711032617e-02

   32
0.0000000000e+00 0.0000000000e+00 0.0000000000e+00
5.6857935664e+00 -5.6857935664e+00 0.0000000000e+00
     1      1      2
 1  1  1    -5.0779289418e-02
 1  1  2     5.5383694242e-02
 1  1  3     1.2054671359e-02
 1  2  1     3.8966777397e-02
 1  2  2    -3.8966777397e-02
 1  2  3    -3.4211097695e-02
 1  3  1    -1.7654436957e-02
 1  3  2    -2.5830516573e-03
 1  3  3     2.0788428384e-02
 2  1  1     3.8966777397e-02
 2  1  2    -3.8966777397e-02
 2  1  3    -3.4211097695e-02
 2  2  1    -5.5383694242e-02
 2  2  2     5.0779289418e-02
 2  2  3     1.2054671359e-02
 2  3  1    -2.5830516573e-03
 2  3  2    -1.7654436957e-02
 2  3  3    -2.0788428384e-02
 3  1  1    -1.7654436957e-02
 3  1  2    -2.5830516573e-03
 3  1  3     2.0788428384e-02
 3  2  1    -2.5830516573e-03