
     Program PWSCF v.6.6 starts on 16Oct2022 at 10:16:22 

     This program is part of the open-source Quantum ESPRESSO suite
     for quantum simulation of materials; please cite
         "P. Giannozzi et al., J. Phys.:Condens. Matter 21 395502 (2009);
         "P. Giannozzi et al., J. Phys.:Condens. Matter 29 465901 (2017);
          URL http://www.quantum-espresso.org", 
     in publications or presentations arising from this work. More details at
     http://www.quantum-espresso.org/quote

     Parallel version (MPI), running on    24 processors

     MPI processes distributed on     1 nodes
     R & G space division:  proc/nbgrp/npool/nimage =      24
     Fft bands division:     nmany     =       1
     Waiting for input...
     Reading input from standard input
Warning: card &CELL ignored
Warning: card PRESS_CONV_THR=0.1 ignored
Warning: card / ignored

     Current dimensions of program PWSCF are:
     Max number of different atomic species (ntypx) = 10
     Max number of k-points (npk) =  40000
     Max angular momentum in pseudopotentials (lmaxx) =  3

     gamma-point specific algorithms are used

     Subspace diagonalization in iterative solution of the eigenvalue problem:
     a serial algorithm will be used

     Message from routine setup:
     using ibrav=0 with symmetry is DISCOURAGED, use correct ibrav instead
 
     Parallelization info
     --------------------
     sticks:   dense  smooth     PW     G-vecs:    dense   smooth      PW
     Min        1094    1094    272               117082   117082   14622
     Max        1096    1096    274               117088   117088   14628
     Sum       26293   26293   6565              2810051  2810051  350997
 


     bravais-lattice index     =            0
     lattice parameter (alat)  =      37.9949  a.u.
     unit-cell volume          =   38784.8807 (a.u.)^3
     number of atoms/cell      =          250
     number of atomic types    =            1
     number of electrons       =      1000.00
     number of Kohn-Sham states=          600
     kinetic-energy cutoff     =      66.0000  Ry
     charge density cutoff     =     264.0000  Ry
     convergence threshold     =      1.0E-16
     mixing beta               =       0.7000
     number of iterations used =            8  plain     mixing
     Exchange-correlation= SLA PW PSX PSC
                           (   1   4  10   8   0   0   0)

     celldm(1)=  37.994945  celldm(2)=   0.000000  celldm(3)=   0.000000
     celldm(4)=   0.000000  celldm(5)=   0.000000  celldm(6)=   0.000000

     crystal axes: (cart. coord. in units of alat)
               a(1) = (  -0.707107   0.000000   0.707107 )  
               a(2) = (   0.000000   0.707107   0.707107 )  
               a(3) = (  -0.707107   0.707107   0.000000 )  

     reciprocal axes: (cart. coord. in units 2 pi/alat)
               b(1) = ( -0.707107 -0.707107  0.707107 )  
               b(2) = (  0.707107  0.707107  0.707107 )  
               b(3) = ( -0.707107  0.707107 -0.707107 )  


     PseudoPot. # 1 for Ge read from file:
     /scratch1/fanchem/Ge/pp/Ge.pbesol-n-kjpaw_psl.1.0.0.UPF
     MD5 check sum: ba6169c2b85c6e6c9360c21392c70c8c
     Pseudo is Projector augmented-wave + core cor, Zval =  4.0
     Generated using "atomic" code by A. Dal Corso v.6.3
     Shape of augmentation charge: PSQ
     Using radial grid of 1207 points,  4 beta functions with: 
                l(1) =   0
                l(2) =   0
                l(3) =   1
                l(4) =   1
     Q(r) pseudized with 0 coefficients 


     atomic species   valence    mass     pseudopotential
        Ge             4.00   172.60000     Ge( 1.00)

      2 Sym. Ops. (no inversion) found


                                    s                        frac. trans.

      isym =  1     identity                                     

 cryst.   s( 1) = (     1          0          0      )
                  (     0          1          0      )
                  (     0          0          1      )

 cart.    s( 1) = (  1.0000000  0.0000000  0.0000000 )
                  (  0.0000000  1.0000000  0.0000000 )
                  (  0.0000000  0.0000000  1.0000000 )


      isym =  2     inv. 180 deg rotation - cart. axis [0,1,1]   

 cryst.   s( 2) = (     1         -1          0      )
                  (     0         -1          0      )
                  (     0         -1          1      )

 cart.    s( 2) = (  1.0000000  0.0000000  0.0000000 )
                  (  0.0000000  0.0000000 -1.0000000 )
                  (  0.0000000 -1.0000000  0.0000000 )


   Cartesian axes

     site n.     atom                  positions (alat units)
         1           Ge  tau(   1) = (   0.0000000   0.0004974  -0.0004974  )
         2           Ge  tau(   2) = (  -0.0707107   0.0707107   0.0707107  )
         3           Ge  tau(   3) = (  -0.1414214   0.0000000   0.1414214  )
         4           Ge  tau(   4) = (  -0.2121320   0.0707107   0.2121320  )
         5           Ge  tau(   5) = (  -0.2828427   0.0000000   0.2828427  )
         6           Ge  tau(   6) = (  -0.3535534   0.0707107   0.3535534  )
         7           Ge  tau(   7) = (  -0.4242641   0.0000000   0.4242641  )
         8           Ge  tau(   8) = (  -0.4949747   0.0707107   0.4949747  )
         9           Ge  tau(   9) = (  -0.5656854   0.0000000   0.5656854  )
        10           Ge  tau(  10) = (  -0.6363961   0.0707107   0.6363961  )
        11           Ge  tau(  11) = (   0.0000000   0.1414214   0.1414214  )
        12           Ge  tau(  12) = (  -0.0707107   0.2121320   0.2121320  )
        13           Ge  tau(  13) = (  -0.1414214   0.1414214   0.2828427  )
        14           Ge  tau(  14) = (  -0.2121320   0.2121320   0.3535534  )
        15           Ge  tau(  15) = (  -0.2828427   0.1414214   0.4242641  )
        16           Ge  tau(  16) = (  -0.3535534   0.2121320   0.4949747  )
        17           Ge  tau(  17) = (  -0.4242641   0.1414214   0.5656854  )
        18           Ge  tau(  18) = (  -0.4949747   0.2121320   0.6363961  )
        19           Ge  tau(  19) = (  -0.5656854   0.1414214   0.7071068  )
        20           Ge  tau(  20) = (  -0.6363961   0.2121320   0.7778175  )
        21           Ge  tau(  21) = (   0.0000000   0.2828427   0.2828427  )
        22           Ge  tau(  22) = (  -0.0707107   0.3535534   0.3535534  )
        23           Ge  tau(  23) = (  -0.1414214   0.2828427   0.4242641  )
        24           Ge  tau(  24) = (  -0.2121320   0.3535534   0.4949747  )
        25           Ge  tau(  25) = (  -0.2828427   0.2828427   0.5656854  )
        26           Ge  tau(  26) = (  -0.3535534   0.3535534   0.6363961  )
        27           Ge  tau(  27) = (  -0.4242641   0.2828427   0.7071068  )
        28           Ge  tau(  28) = (  -0.4949747   0.3535534   0.7778175  )
        29           Ge  tau(  29) = (  -0.5656854   0.2828427   0.8485281  )
        30           Ge  tau(  30) = (  -0.6363961   0.3535534   0.9192388  )
        31           Ge  tau(  31) = (   0.0000000   0.4242641   0.4242641  )
        32           Ge  tau(  32) = (  -0.0707107   0.4949747   0.4949747  )
        33           Ge  tau(  33) = (  -0.1414214   0.4242641   0.5656854  )
        34           Ge  tau(  34) = (  -0.2121320   0.4949747   0.6363961  )
        35           Ge  tau(  35) = (  -0.2828427   0.4242641   0.7071068  )
        36           Ge  tau(  36) = (  -0.3535534   0.4949747   0.7778175  )
        37           Ge  tau(  37) = (  -0.4242641   0.4242641   0.8485281  )
        38           Ge  tau(  38) = (  -0.4949747   0.4949747   0.9192388  )
        39           Ge  tau(  39) = (  -0.5656854   0.4242641   0.9899495  )
        40           Ge  tau(  40) = (  -0.6363961   0.4949747   1.0606602  )
        41           Ge  tau(  41) = (   0.0000000   0.5656854   0.5656854  )
        42           Ge  tau(  42) = (  -0.0707107   0.6363961   0.6363961  )
        43           Ge  tau(  43) = (  -0.1414214   0.5656854   0.7071068  )
        44           Ge  tau(  44) = (  -0.2121320   0.6363961   0.7778175  )
        45           Ge  tau(  45) = (  -0.2828427   0.5656854   0.8485281  )
        46           Ge  tau(  46) = (  -0.3535534   0.6363961   0.9192388  )
        47           Ge  tau(  47) = (  -0.4242641   0.5656854   0.9899495  )
        48           Ge  tau(  48) = (  -0.4949747   0.6363961   1.0606602  )
        49           Ge  tau(  49) = (  -0.5656854   0.5656854   1.1313708  )
        50           Ge  tau(  50) = (  -0.6363961   0.6363961   1.2020815  )
        51           Ge  tau(  51) = (  -0.1414214   0.1414214   0.0000000  )
        52           Ge  tau(  52) = (  -0.2121320   0.2121320   0.0707107  )
        53           Ge  tau(  53) = (  -0.2828427   0.1414214   0.1414214  )
        54           Ge  tau(  54) = (  -0.3535534   0.2121320   0.2121320  )
        55           Ge  tau(  55) = (  -0.4242641   0.1414214   0.2828427  )
        56           Ge  tau(  56) = (  -0.4949747   0.2121320   0.3535534  )
        57           Ge  tau(  57) = (  -0.5656854   0.1414214   0.4242641  )
        58           Ge  tau(  58) = (  -0.6363961   0.2121320   0.4949747  )
        59           Ge  tau(  59) = (  -0.7071068   0.1414214   0.5656854  )
        60           Ge  tau(  60) = (  -0.7778175   0.2121320   0.6363961  )
        61           Ge  tau(  61) = (  -0.1414214   0.2828427   0.1414214  )
        62           Ge  tau(  62) = (  -0.2121320   0.3535534   0.2121320  )
        63           Ge  tau(  63) = (  -0.2828427   0.2828427   0.2828427  )
        64           Ge  tau(  64) = (  -0.3535534   0.3535534   0.3535534  )
        65           Ge  tau(  65) = (  -0.4242641   0.2828427   0.4242641  )
        66           Ge  tau(  66) = (  -0.4949747   0.3535534   0.4949747  )
        67           Ge  tau(  67) = (  -0.5656854   0.2828427   0.5656854  )
        68           Ge  tau(  68) = (  -0.6363961   0.3535534   0.6363961  )
        69           Ge  tau(  69) = (  -0.7071068   0.2828427   0.7071068  )
        70           Ge  tau(  70) = (  -0.7778175   0.3535534   0.7778175  )
        71           Ge  tau(  71) = (  -0.1414214   0.4242641   0.2828427  )
        72           Ge  tau(  72) = (  -0.2121320   0.4949747   0.3535534  )
        73           Ge  tau(  73) = (  -0.2828427   0.4242641   0.4242641  )
        74           Ge  tau(  74) = (  -0.3535534   0.4949747   0.4949747  )
        75           Ge  tau(  75) = (  -0.4242641   0.4242641   0.5656854  )
        76           Ge  tau(  76) = (  -0.4949747   0.4949747   0.6363961  )
        77           Ge  tau(  77) = (  -0.5656854   0.4242641   0.7071068  )
        78           Ge  tau(  78) = (  -0.6363961   0.4949747   0.7778175  )
        79           Ge  tau(  79) = (  -0.7071068   0.4242641   0.8485281  )
        80           Ge  tau(  80) = (  -0.7778175   0.4949747   0.9192388  )
        81           Ge  tau(  81) = (  -0.1414214   0.5656854   0.4242641  )
        82           Ge  tau(  82) = (  -0.2121320   0.6363961   0.4949747  )
        83           Ge  tau(  83) = (  -0.2828427   0.5656854   0.5656854  )
        84           Ge  tau(  84) = (  -0.3535534   0.6363961   0.6363961  )
        85           Ge  tau(  85) = (  -0.4242641   0.5656854   0.7071068  )
        86           Ge  tau(  86) = (  -0.4949747   0.6363961   0.7778175  )
        87           Ge  tau(  87) = (  -0.5656854   0.5656854   0.8485281  )
        88           Ge  tau(  88) = (  -0.6363961   0.6363961   0.9192388  )
        89           Ge  tau(  89) = (  -0.7071068   0.5656854   0.9899495  )
        90           Ge  tau(  90) = (  -0.7778175   0.6363961   1.0606602  )
        91           Ge  tau(  91) = (  -0.1414214   0.7071068   0.5656854  )
        92           Ge  tau(  92) = (  -0.2121320   0.7778175   0.6363961  )
        93           Ge  tau(  93) = (  -0.2828427   0.7071068   0.7071068  )
        94           Ge  tau(  94) = (  -0.3535534   0.7778175   0.7778175  )
        95           Ge  tau(  95) = (  -0.4242641   0.7071068   0.8485281  )
        96           Ge  tau(  96) = (  -0.4949747   0.7778175   0.9192388  )
        97           Ge  tau(  97) = (  -0.5656854   0.7071068   0.9899495  )
        98           Ge  tau(  98) = (  -0.6363961   0.7778175   1.0606602  )
        99           Ge  tau(  99) = (  -0.7071068   0.7071068   1.1313708  )
       100           Ge  tau( 100) = (  -0.7778175   0.7778175   1.2020815  )
       101           Ge  tau( 101) = (  -0.2828427   0.2828427   0.0000000  )
       102           Ge  tau( 102) = (  -0.3535534   0.3535534   0.0707107  )
       103           Ge  tau( 103) = (  -0.4242641   0.2828427   0.1414214  )
       104           Ge  tau( 104) = (  -0.4949747   0.3535534   0.2121320  )
       105           Ge  tau( 105) = (  -0.5656854   0.2828427   0.2828427  )
       106           Ge  tau( 106) = (  -0.6363961   0.3535534   0.3535534  )
       107           Ge  tau( 107) = (  -0.7071068   0.2828427   0.4242641  )
       108           Ge  tau( 108) = (  -0.7778175   0.3535534   0.4949747  )
       109           Ge  tau( 109) = (  -0.8485281   0.2828427   0.5656854  )
       110           Ge  tau( 110) = (  -0.9192388   0.3535534   0.6363961  )
       111           Ge  tau( 111) = (  -0.2828427   0.4242641   0.1414214  )
       112           Ge  tau( 112) = (  -0.3535534   0.4949747   0.2121320  )
       113           Ge  tau( 113) = (  -0.4242641   0.4242641   0.2828427  )
       114           Ge  tau( 114) = (  -0.4949747   0.4949747   0.3535534  )
       115           Ge  tau( 115) = (  -0.5656854   0.4242641   0.4242641  )
       116           Ge  tau( 116) = (  -0.6363961   0.4949747   0.4949747  )
       117           Ge  tau( 117) = (  -0.7071068   0.4242641   0.5656854  )
       118           Ge  tau( 118) = (  -0.7778175   0.4949747   0.6363961  )
       119           Ge  tau( 119) = (  -0.8485281   0.4242641   0.7071068  )
       120           Ge  tau( 120) = (  -0.9192388   0.4949747   0.7778175  )
       121           Ge  tau( 121) = (  -0.2828427   0.5656854   0.2828427  )
       122           Ge  tau( 122) = (  -0.3535534   0.6363961   0.3535534  )
       123           Ge  tau( 123) = (  -0.4242641   0.5656854   0.4242641  )
       124           Ge  tau( 124) = (  -0.4949747   0.6363961   0.4949747  )
       125           Ge  tau( 125) = (  -0.5656854   0.5656854   0.5656854  )
       126           Ge  tau( 126) = (  -0.6363961   0.6363961   0.6363961  )
       127           Ge  tau( 127) = (  -0.7071068   0.5656854   0.7071068  )
       128           Ge  tau( 128) = (  -0.7778175   0.6363961   0.7778175  )
       129           Ge  tau( 129) = (  -0.8485281   0.5656854   0.8485281  )
       130           Ge  tau( 130) = (  -0.9192388   0.6363961   0.9192388  )
       131           Ge  tau( 131) = (  -0.2828427   0.7071068   0.4242641  )
       132           Ge  tau( 132) = (  -0.3535534   0.7778175   0.4949747  )
       133           Ge  tau( 133) = (  -0.4242641   0.7071068   0.5656854  )
       134           Ge  tau( 134) = (  -0.4949747   0.7778175   0.6363961  )
       135           Ge  tau( 135) = (  -0.5656854   0.7071068   0.7071068  )
       136           Ge  tau( 136) = (  -0.6363961   0.7778175   0.7778175  )
       137           Ge  tau( 137) = (  -0.7071068   0.7071068   0.8485281  )
       138           Ge  tau( 138) = (  -0.7778175   0.7778175   0.9192388  )
       139           Ge  tau( 139) = (  -0.8485281   0.7071068   0.9899495  )
       140           Ge  tau( 140) = (  -0.9192388   0.7778175   1.0606602  )
       141           Ge  tau( 141) = (  -0.2828427   0.8485281   0.5656854  )
       142           Ge  tau( 142) = (  -0.3535534   0.9192388   0.6363961  )
       143           Ge  tau( 143) = (  -0.4242641   0.8485281   0.7071068  )
       144           Ge  tau( 144) = (  -0.4949747   0.9192388   0.7778175  )
       145           Ge  tau( 145) = (  -0.5656854   0.8485281   0.8485281  )
       146           Ge  tau( 146) = (  -0.6363961   0.9192388   0.9192388  )
       147           Ge  tau( 147) = (  -0.7071068   0.8485281   0.9899495  )
       148           Ge  tau( 148) = (  -0.7778175   0.9192388   1.0606602  )
       149           Ge  tau( 149) = (  -0.8485281   0.8485281   1.1313708  )
       150           Ge  tau( 150) = (  -0.9192388   0.9192388   1.2020815  )
       151           Ge  tau( 151) = (  -0.4242641   0.4242641   0.0000000  )
       152           Ge  tau( 152) = (  -0.4949747   0.4949747   0.0707107  )
       153           Ge  tau( 153) = (  -0.5656854   0.4242641   0.1414214  )
       154           Ge  tau( 154) = (  -0.6363961   0.4949747   0.2121320  )
       155           Ge  tau( 155) = (  -0.7071068   0.4242641   0.2828427  )
       156           Ge  tau( 156) = (  -0.7778175   0.4949747   0.3535534  )
       157           Ge  tau( 157) = (  -0.8485281   0.4242641   0.4242641  )
       158           Ge  tau( 158) = (  -0.9192388   0.4949747   0.4949747  )
       159           Ge  tau( 159) = (  -0.9899495   0.4242641   0.5656854  )
       160           Ge  tau( 160) = (  -1.0606602   0.4949747   0.6363961  )
       161           Ge  tau( 161) = (  -0.4242641   0.5656854   0.1414214  )
       162           Ge  tau( 162) = (  -0.4949747   0.6363961   0.2121320  )
       163           Ge  tau( 163) = (  -0.5656854   0.5656854   0.2828427  )
       164           Ge  tau( 164) = (  -0.6363961   0.6363961   0.3535534  )
       165           Ge  tau( 165) = (  -0.7071068   0.5656854   0.4242641  )
       166           Ge  tau( 166) = (  -0.7778175   0.6363961   0.4949747  )
       167           Ge  tau( 167) = (  -0.8485281   0.5656854   0.5656854  )
       168           Ge  tau( 168) = (  -0.9192388   0.6363961   0.6363961  )
       169           Ge  tau( 169) = (  -0.9899495   0.5656854   0.7071068  )
       170           Ge  tau( 170) = (  -1.0606602   0.6363961   0.7778175  )
       171           Ge  tau( 171) = (  -0.4242641   0.7071068   0.2828427  )
       172           Ge  tau( 172) = (  -0.4949747   0.7778175   0.3535534  )
       173           Ge  tau( 173) = (  -0.5656854   0.7071068   0.4242641  )
       174           Ge  tau( 174) = (  -0.6363961   0.7778175   0.4949747  )
       175           Ge  tau( 175) = (  -0.7071068   0.7071068   0.5656854  )
       176           Ge  tau( 176) = (  -0.7778175   0.7778175   0.6363961  )
       177           Ge  tau( 177) = (  -0.8485281   0.7071068   0.7071068  )
       178           Ge  tau( 178) = (  -0.9192388   0.7778175   0.7778175  )
       179           Ge  tau( 179) = (  -0.9899495   0.7071068   0.8485281  )
       180           Ge  tau( 180) = (  -1.0606602   0.7778175   0.9192388  )
       181           Ge  tau( 181) = (  -0.4242641   0.8485281   0.4242641  )
       182           Ge  tau( 182) = (  -0.4949747   0.9192388   0.4949747  )
       183           Ge  tau( 183) = (  -0.5656854   0.8485281   0.5656854  )
       184           Ge  tau( 184) = (  -0.6363961   0.9192388   0.6363961  )
       185           Ge  tau( 185) = (  -0.7071068   0.8485281   0.7071068  )
       186           Ge  tau( 186) = (  -0.7778175   0.9192388   0.7778175  )
       187           Ge  tau( 187) = (  -0.8485281   0.8485281   0.8485281  )
       188           Ge  tau( 188) = (  -0.9192388   0.9192388   0.9192388  )
       189           Ge  tau( 189) = (  -0.9899495   0.8485281   0.9899495  )
       190           Ge  tau( 190) = (  -1.0606602   0.9192388   1.0606602  )
       191           Ge  tau( 191) = (  -0.4242641   0.9899495   0.5656854  )
       192           Ge  tau( 192) = (  -0.4949747   1.0606602   0.6363961  )
       193           Ge  tau( 193) = (  -0.5656854   0.9899495   0.7071068  )
       194           Ge  tau( 194) = (  -0.6363961   1.0606602   0.7778175  )
       195           Ge  tau( 195) = (  -0.7071068   0.9899495   0.8485281  )
       196           Ge  tau( 196) = (  -0.7778175   1.0606602   0.9192388  )
       197           Ge  tau( 197) = (  -0.8485281   0.9899495   0.9899495  )
       198           Ge  tau( 198) = (  -0.9192388   1.0606602   1.0606602  )
       199           Ge  tau( 199) = (  -0.9899495   0.9899495   1.1313708  )
       200           Ge  tau( 200) = (  -1.0606602   1.0606602   1.2020815  )
       201           Ge  tau( 201) = (  -0.5656854   0.5656854   0.0000000  )
       202           Ge  tau( 202) = (  -0.6363961   0.6363961   0.0707107  )
       203           Ge  tau( 203) = (  -0.7071068   0.5656854   0.1414214  )
       204           Ge  tau( 204) = (  -0.7778175   0.6363961   0.2121320  )
       205           Ge  tau( 205) = (  -0.8485281   0.5656854   0.2828427  )
       206           Ge  tau( 206) = (  -0.9192388   0.6363961   0.3535534  )
       207           Ge  tau( 207) = (  -0.9899495   0.5656854   0.4242641  )
       208           Ge  tau( 208) = (  -1.0606602   0.6363961   0.4949747  )
       209           Ge  tau( 209) = (  -1.1313708   0.5656854   0.5656854  )
       210           Ge  tau( 210) = (  -1.2020815   0.6363961   0.6363961  )
       211           Ge  tau( 211) = (  -0.5656854   0.7071068   0.1414214  )
       212           Ge  tau( 212) = (  -0.6363961   0.7778175   0.2121320  )
       213           Ge  tau( 213) = (  -0.7071068   0.7071068   0.2828427  )
       214           Ge  tau( 214) = (  -0.7778175   0.7778175   0.3535534  )
       215           Ge  tau( 215) = (  -0.8485281   0.7071068   0.4242641  )
       216           Ge  tau( 216) = (  -0.9192388   0.7778175   0.4949747  )
       217           Ge  tau( 217) = (  -0.9899495   0.7071068   0.5656854  )
       218           Ge  tau( 218) = (  -1.0606602   0.7778175   0.6363961  )
       219           Ge  tau( 219) = (  -1.1313708   0.7071068   0.7071068  )
       220           Ge  tau( 220) = (  -1.2020815   0.7778175   0.7778175  )
       221           Ge  tau( 221) = (  -0.5656854   0.8485281   0.2828427  )
       222           Ge  tau( 222) = (  -0.6363961   0.9192388   0.3535534  )
       223           Ge  tau( 223) = (  -0.7071068   0.8485281   0.4242641  )
       224           Ge  tau( 224) = (  -0.7778175   0.9192388   0.4949747  )
       225           Ge  tau( 225) = (  -0.8485281   0.8485281   0.5656854  )
       226           Ge  tau( 226) = (  -0.9192388   0.9192388   0.6363961  )
       227           Ge  tau( 227) = (  -0.9899495   0.8485281   0.7071068  )
       228           Ge  tau( 228) = (  -1.0606602   0.9192388   0.7778175  )
       229           Ge  tau( 229) = (  -1.1313708   0.8485281   0.8485281  )
       230           Ge  tau( 230) = (  -1.2020815   0.9192388   0.9192388  )
       231           Ge  tau( 231) = (  -0.5656854   0.9899495   0.4242641  )
       232           Ge  tau( 232) = (  -0.6363961   1.0606602   0.4949747  )
       233           Ge  tau( 233) = (  -0.7071068   0.9899495   0.5656854  )
       234           Ge  tau( 234) = (  -0.7778175   1.0606602   0.6363961  )
       235           Ge  tau( 235) = (  -0.8485281   0.9899495   0.7071068  )
       236           Ge  tau( 236) = (  -0.9192388   1.0606602   0.7778175  )
       237           Ge  tau( 237) = (  -0.9899495   0.9899495   0.8485281  )
       238           Ge  tau( 238) = (  -1.0606602   1.0606602   0.9192388  )
       239           Ge  tau( 239) = (  -1.1313708   0.9899495   0.9899495  )
       240           Ge  tau( 240) = (  -1.2020815   1.0606602   1.0606602  )
       241           Ge  tau( 241) = (  -0.5656854   1.1313708   0.5656854  )
       242           Ge  tau( 242) = (  -0.6363961   1.2020815   0.6363961  )
       243           Ge  tau( 243) = (  -0.7071068   1.1313708   0.7071068  )
       244           Ge  tau( 244) = (  -0.7778175   1.2020815   0.7778175  )
       245           Ge  tau( 245) = (  -0.8485281   1.1313708   0.8485281  )
       246           Ge  tau( 246) = (  -0.9192388   1.2020815   0.9192388  )
       247           Ge  tau( 247) = (  -0.9899495   1.1313708   0.9899495  )
       248           Ge  tau( 248) = (  -1.0606602   1.2020815   1.0606602  )
       249           Ge  tau( 249) = (  -1.1313708   1.1313708   1.1313708  )
       250           Ge  tau( 250) = (  -1.2020815   1.2020815   1.2020815  )

   Crystallographic axes

     site n.     atom                  positions (cryst. coord.)
         1           Ge  tau(   1) = ( -0.0007034  0.0000000  0.0007034  )
         2           Ge  tau(   2) = (  0.0500000  0.0500000  0.0500000  )
         3           Ge  tau(   3) = (  0.2000000  0.0000000  0.0000000  )
         4           Ge  tau(   4) = (  0.2500000  0.0500000  0.0500000  )
         5           Ge  tau(   5) = (  0.4000000  0.0000000  0.0000000  )
         6           Ge  tau(   6) = (  0.4500000  0.0500000  0.0500000  )
         7           Ge  tau(   7) = (  0.6000000  0.0000000  0.0000000  )
         8           Ge  tau(   8) = (  0.6500000  0.0500000  0.0500000  )
         9           Ge  tau(   9) = (  0.8000000  0.0000000  0.0000000  )
        10           Ge  tau(  10) = (  0.8500000  0.0500000  0.0500000  )
        11           Ge  tau(  11) = (  0.0000000  0.2000000  0.0000000  )
        12           Ge  tau(  12) = (  0.0500000  0.2500000  0.0500000  )
        13           Ge  tau(  13) = (  0.2000000  0.2000000  0.0000000  )
        14           Ge  tau(  14) = (  0.2500000  0.2500000  0.0500000  )
        15           Ge  tau(  15) = (  0.4000000  0.2000000  0.0000000  )
        16           Ge  tau(  16) = (  0.4500000  0.2500000  0.0500000  )
        17           Ge  tau(  17) = (  0.6000000  0.2000000  0.0000000  )
        18           Ge  tau(  18) = (  0.6500000  0.2500000  0.0500000  )
        19           Ge  tau(  19) = (  0.8000000  0.2000000  0.0000000  )
        20           Ge  tau(  20) = (  0.8500000  0.2500000  0.0500000  )
        21           Ge  tau(  21) = (  0.0000000  0.4000000  0.0000000  )
        22           Ge  tau(  22) = (  0.0500000  0.4500000  0.0500000  )
        23           Ge  tau(  23) = (  0.2000000  0.4000000  0.0000000  )
        24           Ge  tau(  24) = (  0.2500000  0.4500000  0.0500000  )
        25           Ge  tau(  25) = (  0.4000000  0.4000000  0.0000000  )
        26           Ge  tau(  26) = (  0.4500000  0.4500000  0.0500000  )
        27           Ge  tau(  27) = (  0.6000000  0.4000000  0.0000000  )
        28           Ge  tau(  28) = (  0.6500000  0.4500000  0.0500000  )
        29           Ge  tau(  29) = (  0.8000000  0.4000000  0.0000000  )
        30           Ge  tau(  30) = (  0.8500000  0.4500000  0.0500000  )
        31           Ge  tau(  31) = (  0.0000000  0.6000000  0.0000000  )
        32           Ge  tau(  32) = (  0.0500000  0.6500000  0.0500000  )
        33           Ge  tau(  33) = (  0.2000000  0.6000000  0.0000000  )
        34           Ge  tau(  34) = (  0.2500000  0.6500000  0.0500000  )
        35           Ge  tau(  35) = (  0.4000000  0.6000000 -0.0000000  )
        36           Ge  tau(  36) = (  0.4500000  0.6500000  0.0500000  )
        37           Ge  tau(  37) = (  0.6000000  0.6000000  0.0000000  )
        38           Ge  tau(  38) = (  0.6500000  0.6500000  0.0500000  )
        39           Ge  tau(  39) = (  0.8000000  0.6000000  0.0000000  )
        40           Ge  tau(  40) = (  0.8500000  0.6500000  0.0500000  )
        41           Ge  tau(  41) = (  0.0000000  0.8000000  0.0000000  )
        42           Ge  tau(  42) = (  0.0500000  0.8500000  0.0500000  )
        43           Ge  tau(  43) = (  0.2000000  0.8000000 -0.0000000  )
        44           Ge  tau(  44) = (  0.2500000  0.8500000  0.0500000  )
        45           Ge  tau(  45) = (  0.4000000  0.8000000  0.0000000  )
        46           Ge  tau(  46) = (  0.4500000  0.8500000  0.0500000  )
        47           Ge  tau(  47) = (  0.6000000  0.8000000  0.0000000  )
        48           Ge  tau(  48) = (  0.6500000  0.8500000  0.0500000  )
        49           Ge  tau(  49) = (  0.8000000  0.8000000  0.0000000  )
        50           Ge  tau(  50) = (  0.8500000  0.8500000  0.0500000  )
        51           Ge  tau(  51) = (  0.0000000  0.0000000  0.2000000  )
        52           Ge  tau(  52) = (  0.0500000  0.0500000  0.2500000  )
        53           Ge  tau(  53) = (  0.2000000  0.0000000  0.2000000  )
        54           Ge  tau(  54) = (  0.2500000  0.0500000  0.2500000  )
        55           Ge  tau(  55) = (  0.4000000  0.0000000  0.2000000  )
        56           Ge  tau(  56) = (  0.4500000  0.0500000  0.2500000  )
        57           Ge  tau(  57) = (  0.6000000  0.0000000  0.2000000  )
        58           Ge  tau(  58) = (  0.6500000  0.0500000  0.2500000  )
        59           Ge  tau(  59) = (  0.8000000  0.0000000  0.2000000  )
        60           Ge  tau(  60) = (  0.8500000  0.0500000  0.2500000  )
        61           Ge  tau(  61) = (  0.0000000  0.2000000  0.2000000  )
        62           Ge  tau(  62) = (  0.0500000  0.2500000  0.2500000  )
        63           Ge  tau(  63) = (  0.2000000  0.2000000  0.2000000  )
        64           Ge  tau(  64) = (  0.2500000  0.2500000  0.2500000  )
        65           Ge  tau(  65) = (  0.4000000  0.2000000  0.2000000  )
        66           Ge  tau(  66) = (  0.4500000  0.2500000  0.2500000  )
        67           Ge  tau(  67) = (  0.6000000  0.2000000  0.2000000  )
        68           Ge  tau(  68) = (  0.6500000  0.2500000  0.2500000  )
        69           Ge  tau(  69) = (  0.8000000  0.2000000  0.2000000  )
        70           Ge  tau(  70) = (  0.8500000  0.2500000  0.2500000  )
        71           Ge  tau(  71) = (  0.0000000  0.4000000  0.2000000  )
        72           Ge  tau(  72) = (  0.0500000  0.4500000  0.2500000  )
        73           Ge  tau(  73) = (  0.2000000  0.4000000  0.2000000  )
        74           Ge  tau(  74) = (  0.2500000  0.4500000  0.2500000  )
        75           Ge  tau(  75) = (  0.4000000  0.4000000  0.2000000  )
        76           Ge  tau(  76) = (  0.4500000  0.4500000  0.2500000  )
        77           Ge  tau(  77) = (  0.6000000  0.4000000  0.2000000  )
        78           Ge  tau(  78) = (  0.6500000  0.4500000  0.2500000  )
        79           Ge  tau(  79) = (  0.8000000  0.4000000  0.2000000  )
        80           Ge  tau(  80) = (  0.8500000  0.4500000  0.2500000  )
        81           Ge  tau(  81) = (  0.0000000  0.6000000  0.2000000  )
        82           Ge  tau(  82) = (  0.0500000  0.6500000  0.2500000  )
        83           Ge  tau(  83) = (  0.2000000  0.6000000  0.2000000  )
        84           Ge  tau(  84) = (  0.2500000  0.6500000  0.2500000  )
        85           Ge  tau(  85) = (  0.4000000  0.6000000  0.2000000  )
        86           Ge  tau(  86) = (  0.4500000  0.6500000  0.2500000  )
        87           Ge  tau(  87) = (  0.6000000  0.6000000  0.2000000  )
        88           Ge  tau(  88) = (  0.6500000  0.6500000  0.2500000  )
        89           Ge  tau(  89) = (  0.8000000  0.6000000  0.2000000  )
        90           Ge  tau(  90) = (  0.8500000  0.6500000  0.2500000  )
        91           Ge  tau(  91) = ( -0.0000000  0.8000000  0.2000000  )
        92           Ge  tau(  92) = (  0.0500000  0.8500000  0.2500000  )
        93           Ge  tau(  93) = (  0.2000000  0.8000000  0.2000000  )
        94           Ge  tau(  94) = (  0.2500000  0.8500000  0.2500000  )
        95           Ge  tau(  95) = (  0.4000000  0.8000000  0.2000000  )
        96           Ge  tau(  96) = (  0.4500000  0.8500000  0.2500000  )
        97           Ge  tau(  97) = (  0.6000000  0.8000000  0.2000000  )
        98           Ge  tau(  98) = (  0.6500000  0.8500000  0.2500000  )
        99           Ge  tau(  99) = (  0.8000000  0.8000000  0.2000000  )
       100           Ge  tau( 100) = (  0.8500000  0.8500000  0.2500000  )
       101           Ge  tau( 101) = (  0.0000000  0.0000000  0.4000000  )
       102           Ge  tau( 102) = (  0.0500000  0.0500000  0.4500000  )
       103           Ge  tau( 103) = (  0.2000000  0.0000000  0.4000000  )
       104           Ge  tau( 104) = (  0.2500000  0.0500000  0.4500000  )
       105           Ge  tau( 105) = (  0.4000000  0.0000000  0.4000000  )
       106           Ge  tau( 106) = (  0.4500000  0.0500000  0.4500000  )
       107           Ge  tau( 107) = (  0.6000000  0.0000000  0.4000000  )
       108           Ge  tau( 108) = (  0.6500000  0.0500000  0.4500000  )
       109           Ge  tau( 109) = (  0.8000000  0.0000000  0.4000000  )
       110           Ge  tau( 110) = (  0.8500000  0.0500000  0.4500000  )
       111           Ge  tau( 111) = (  0.0000000  0.2000000  0.4000000  )
       112           Ge  tau( 112) = (  0.0500000  0.2500000  0.4500000  )
       113           Ge  tau( 113) = (  0.2000000  0.2000000  0.4000000  )
       114           Ge  tau( 114) = (  0.2500000  0.2500000  0.4500000  )
       115           Ge  tau( 115) = (  0.4000000  0.2000000  0.4000000  )
       116           Ge  tau( 116) = (  0.4500000  0.2500000  0.4500000  )
       117           Ge  tau( 117) = (  0.6000000  0.2000000  0.4000000  )
       118           Ge  tau( 118) = (  0.6500000  0.2500000  0.4500000  )
       119           Ge  tau( 119) = (  0.8000000  0.2000000  0.4000000  )
       120           Ge  tau( 120) = (  0.8500000  0.2500000  0.4500000  )
       121           Ge  tau( 121) = (  0.0000000  0.4000000  0.4000000  )
       122           Ge  tau( 122) = (  0.0500000  0.4500000  0.4500000  )
       123           Ge  tau( 123) = (  0.2000000  0.4000000  0.4000000  )
       124           Ge  tau( 124) = (  0.2500000  0.4500000  0.4500000  )
       125           Ge  tau( 125) = (  0.4000000  0.4000000  0.4000000  )
       126           Ge  tau( 126) = (  0.4500000  0.4500000  0.4500000  )
       127           Ge  tau( 127) = (  0.6000000  0.4000000  0.4000000  )
       128           Ge  tau( 128) = (  0.6500000  0.4500000  0.4500000  )
       129           Ge  tau( 129) = (  0.8000000  0.4000000  0.4000000  )
       130           Ge  tau( 130) = (  0.8500000  0.4500000  0.4500000  )
       131           Ge  tau( 131) = ( -0.0000000  0.6000000  0.4000000  )
       132           Ge  tau( 132) = (  0.0500000  0.6500000  0.4500000  )
       133           Ge  tau( 133) = (  0.2000000  0.6000000  0.4000000  )
       134           Ge  tau( 134) = (  0.2500000  0.6500000  0.4500000  )
       135           Ge  tau( 135) = (  0.4000000  0.6000000  0.4000000  )
       136           Ge  tau( 136) = (  0.4500000  0.6500000  0.4500000  )
       137           Ge  tau( 137) = (  0.6000000  0.6000000  0.4000000  )
       138           Ge  tau( 138) = (  0.6500000  0.6500000  0.4500000  )
       139           Ge  tau( 139) = (  0.8000000  0.6000000  0.4000000  )
       140           Ge  tau( 140) = (  0.8500000  0.6500000  0.4500000  )
       141           Ge  tau( 141) = (  0.0000000  0.8000000  0.4000000  )
       142           Ge  tau( 142) = (  0.0500000  0.8500000  0.4500000  )
       143           Ge  tau( 143) = (  0.2000000  0.8000000  0.4000000  )
       144           Ge  tau( 144) = (  0.2500000  0.8500000  0.4500000  )
       145           Ge  tau( 145) = (  0.4000000  0.8000000  0.4000000  )
       146           Ge  tau( 146) = (  0.4500000  0.8500000  0.4500000  )
       147           Ge  tau( 147) = (  0.6000000  0.8000000  0.4000000  )
       148           Ge  tau( 148) = (  0.6500000  0.8500000  0.4500000  )
       149           Ge  tau( 149) = (  0.8000000  0.8000000  0.4000000  )
       150           Ge  tau( 150) = (  0.8500000  0.8500000  0.4500000  )
       151           Ge  tau( 151) = (  0.0000000  0.0000000  0.6000000  )
       152           Ge  tau( 152) = (  0.0500000  0.0500000  0.6500000  )
       153           Ge  tau( 153) = (  0.2000000  0.0000000  0.6000000  )
       154           Ge  tau( 154) = (  0.2500000  0.0500000  0.6500000  )
       155           Ge  tau( 155) = (  0.4000000  0.0000000  0.6000000  )
       156           Ge  tau( 156) = (  0.4500000  0.0500000  0.6500000  )
       157           Ge  tau( 157) = (  0.6000000  0.0000000  0.6000000  )
       158           Ge  tau( 158) = (  0.6500000  0.0500000  0.6500000  )
       159           Ge  tau( 159) = (  0.8000000  0.0000000  0.6000000  )
       160           Ge  tau( 160) = (  0.8500000  0.0500000  0.6500000  )
       161           Ge  tau( 161) = (  0.0000000  0.2000000  0.6000000  )
       162           Ge  tau( 162) = (  0.0500000  0.2500000  0.6500000  )
       163           Ge  tau( 163) = (  0.2000000  0.2000000  0.6000000  )
       164           Ge  tau( 164) = (  0.2500000  0.2500000  0.6500000  )
       165           Ge  tau( 165) = (  0.4000000  0.2000000  0.6000000  )
       166           Ge  tau( 166) = (  0.4500000  0.2500000  0.6500000  )
       167           Ge  tau( 167) = (  0.6000000  0.2000000  0.6000000  )
       168           Ge  tau( 168) = (  0.6500000  0.2500000  0.6500000  )
       169           Ge  tau( 169) = (  0.8000000  0.2000000  0.6000000  )
       170           Ge  tau( 170) = (  0.8500000  0.2500000  0.6500000  )
       171           Ge  tau( 171) = (  0.0000000  0.4000000  0.6000000  )
       172           Ge  tau( 172) = (  0.0500000  0.4500000  0.6500000  )
       173           Ge  tau( 173) = (  0.2000000  0.4000000  0.6000000  )
       174           Ge  tau( 174) = (  0.2500000  0.4500000  0.6500000  )
       175           Ge  tau( 175) = (  0.4000000  0.4000000  0.6000000  )
       176           Ge  tau( 176) = (  0.4500000  0.4500000  0.6500000  )
       177           Ge  tau( 177) = (  0.6000000  0.4000000  0.6000000  )
       178           Ge  tau( 178) = (  0.6500000  0.4500000  0.6500000  )
       179           Ge  tau( 179) = (  0.8000000  0.4000000  0.6000000  )
       180           Ge  tau( 180) = (  0.8500000  0.4500000  0.6500000  )
       181           Ge  tau( 181) = (  0.0000000  0.6000000  0.6000000  )
       182           Ge  tau( 182) = (  0.0500000  0.6500000  0.6500000  )
       183           Ge  tau( 183) = (  0.2000000  0.6000000  0.6000000  )
       184           Ge  tau( 184) = (  0.2500000  0.6500000  0.6500000  )
       185           Ge  tau( 185) = (  0.4000000  0.6000000  0.6000000  )
       186           Ge  tau( 186) = (  0.4500000  0.6500000  0.6500000  )
       187           Ge  tau( 187) = (  0.6000000  0.6000000  0.6000000  )
       188           Ge  tau( 188) = (  0.6500000  0.6500000  0.6500000  )
       189           Ge  tau( 189) = (  0.8000000  0.6000000  0.6000000  )
       190           Ge  tau( 190) = (  0.8500000  0.6500000  0.6500000  )
       191           Ge  tau( 191) = (  0.0000000  0.8000000  0.6000000  )
       192           Ge  tau( 192) = (  0.0500000  0.8500000  0.6500000  )
       193           Ge  tau( 193) = (  0.2000000  0.8000000  0.6000000  )
       194           Ge  tau( 194) = (  0.2500000  0.8500000  0.6500000  )
       195           Ge  tau( 195) = (  0.4000000  0.8000000  0.6000000  )
       196           Ge  tau( 196) = (  0.4500000  0.8500000  0.6500000  )
       197           Ge  tau( 197) = (  0.6000000  0.8000000  0.6000000  )
       198           Ge  tau( 198) = (  0.6500000  0.8500000  0.6500000  )
       199           Ge  tau( 199) = (  0.8000000  0.8000000  0.6000000  )
       200           Ge  tau( 200) = (  0.8500000  0.8500000  0.6500000  )
       201           Ge  tau( 201) = (  0.0000000  0.0000000  0.8000000  )
       202           Ge  tau( 202) = (  0.0500000  0.0500000  0.8500000  )
       203           Ge  tau( 203) = (  0.2000000  0.0000000  0.8000000  )
       204           Ge  tau( 204) = (  0.2500000  0.0500000  0.8500000  )
       205           Ge  tau( 205) = (  0.4000000  0.0000000  0.8000000  )
       206           Ge  tau( 206) = (  0.4500000  0.0500000  0.8500000  )
       207           Ge  tau( 207) = (  0.6000000  0.0000000  0.8000000  )
       208           Ge  tau( 208) = (  0.6500000  0.0500000  0.8500000  )
       209           Ge  tau( 209) = (  0.8000000  0.0000000  0.8000000  )
       210           Ge  tau( 210) = (  0.8500000  0.0500000  0.8500000  )
       211           Ge  tau( 211) = (  0.0000000  0.2000000  0.8000000  )
       212           Ge  tau( 212) = (  0.0500000  0.2500000  0.8500000  )
       213           Ge  tau( 213) = (  0.2000000  0.2000000  0.8000000  )
       214           Ge  tau( 214) = (  0.2500000  0.2500000  0.8500000  )
       215           Ge  tau( 215) = (  0.4000000  0.2000000  0.8000000  )
       216           Ge  tau( 216) = (  0.4500000  0.2500000  0.8500000  )
       217           Ge  tau( 217) = (  0.6000000  0.2000000  0.8000000  )
       218           Ge  tau( 218) = (  0.6500000  0.2500000  0.8500000  )
       219           Ge  tau( 219) = (  0.8000000  0.2000000  0.8000000  )
       220           Ge  tau( 220) = (  0.8500000  0.2500000  0.8500000  )
       221           Ge  tau( 221) = (  0.0000000  0.4000000  0.8000000  )
       222           Ge  tau( 222) = (  0.0500000  0.4500000  0.8500000  )
       223           Ge  tau( 223) = (  0.2000000  0.4000000  0.8000000  )
       224           Ge  tau( 224) = (  0.2500000  0.4500000  0.8500000  )
       225           Ge  tau( 225) = (  0.4000000  0.4000000  0.8000000  )
       226           Ge  tau( 226) = (  0.4500000  0.4500000  0.8500000  )
       227           Ge  tau( 227) = (  0.6000000  0.4000000  0.8000000  )
       228           Ge  tau( 228) = (  0.6500000  0.4500000  0.8500000  )
       229           Ge  tau( 229) = (  0.8000000  0.4000000  0.8000000  )
       230           Ge  tau( 230) = (  0.8500000  0.4500000  0.8500000  )
       231           Ge  tau( 231) = (  0.0000000  0.6000000  0.8000000  )
       232           Ge  tau( 232) = (  0.0500000  0.6500000  0.8500000  )
       233           Ge  tau( 233) = (  0.2000000  0.6000000  0.8000000  )
       234           Ge  tau( 234) = (  0.2500000  0.6500000  0.8500000  )
       235           Ge  tau( 235) = (  0.4000000  0.6000000  0.8000000  )
       236           Ge  tau( 236) = (  0.4500000  0.6500000  0.8500000  )
       237           Ge  tau( 237) = (  0.6000000  0.6000000  0.8000000  )
       238           Ge  tau( 238) = (  0.6500000  0.6500000  0.8500000  )
       239           Ge  tau( 239) = (  0.8000000  0.6000000  0.8000000  )
       240           Ge  tau( 240) = (  0.8500000  0.6500000  0.8500000  )
       241           Ge  tau( 241) = (  0.0000000  0.8000000  0.8000000  )
       242           Ge  tau( 242) = (  0.0500000  0.8500000  0.8500000  )
       243           Ge  tau( 243) = (  0.2000000  0.8000000  0.8000000  )
       244           Ge  tau( 244) = (  0.2500000  0.8500000  0.8500000  )
       245           Ge  tau( 245) = (  0.4000000  0.8000000  0.8000000  )
       246           Ge  tau( 246) = (  0.4500000  0.8500000  0.8500000  )
       247           Ge  tau( 247) = (  0.6000000  0.8000000  0.8000000  )
       248           Ge  tau( 248) = (  0.6500000  0.8500000  0.8500000  )
       249           Ge  tau( 249) = (  0.8000000  0.8000000  0.8000000  )
       250           Ge  tau( 250) = (  0.8500000  0.8500000  0.8500000  )

     number of k points=     1  Gaussian smearing, width (Ry)=  0.0200
                       cart. coord. in units 2pi/alat
        k(    1) = (   0.0000000   0.0000000   0.0000000), wk =   2.0000000

                       cryst. coord.
        k(    1) = (   0.0000000   0.0000000   0.0000000), wk =   2.0000000

     Dense  grid:  1405026 G-vectors     FFT dimensions: ( 200, 200, 200)

     Dynamical RAM for                 wfc:      66.98 MB

     Dynamical RAM for     wfc (w. buffer):      66.98 MB

     Dynamical RAM for           str. fact:       0.89 MB

     Dynamical RAM for           local pot:       0.00 MB

     Dynamical RAM for          nlocal pot:     223.27 MB

     Dynamical RAM for                qrad:       0.37 MB

     Dynamical RAM for          rho,v,vnew:      10.92 MB

     Dynamical RAM for               rhoin:       3.64 MB

     Dynamical RAM for            rho*nmix:      14.29 MB

     Dynamical RAM for           G-vectors:       3.80 MB

     Dynamical RAM for          h,s,v(r/c):      32.96 MB

     Dynamical RAM for          <psi|beta>:       9.16 MB

     Dynamical RAM for                 psi:     133.96 MB

     Dynamical RAM for                hpsi:     133.96 MB

     Dynamical RAM for                spsi:     133.96 MB

     Dynamical RAM for      wfcinit/wfcrot:     246.16 MB

     Dynamical RAM for           addusdens:     261.74 MB

     Dynamical RAM for          addusforce:     707.25 MB

     Dynamical RAM for         addusstress:      44.66 MB

     Estimated static dynamical RAM per process >     339.68 MB

     Estimated max dynamical RAM per process >       1.02 GB

     Estimated total dynamical RAM >      24.54 GB

     Initial potential from superposition of free atoms

     starting charge  999.82274, renormalised to 1000.00000
     Starting wfcs are 1000 randomized atomic wfcs
     Checking if some PAW data can be deallocated... 

     total cpu time spent up to now is       25.1 secs

     Self-consistent Calculation

     iteration #  1     ecut=    66.00 Ry     beta= 0.70
     Davidson diagonalization with overlap
     ethr =  1.00E-02,  avg # of iterations =  2.0

     Threshold (ethr) on eigenvalues was too large:
     Diagonalizing with lowered threshold

     Davidson diagonalization with overlap
     ethr =  3.72E-04,  avg # of iterations =  2.0

     total cpu time spent up to now is      107.1 secs

     total energy              =  -40251.61253795 Ry
     estimated scf accuracy    <       3.90190136 Ry

     iteration #  2     ecut=    66.00 Ry     beta= 0.70
     Davidson diagonalization with overlap
     ethr =  3.90E-04,  avg # of iterations =  1.0

     total cpu time spent up to now is      142.1 secs

     total energy              =  -40251.69780366 Ry
     estimated scf accuracy    <       0.19146438 Ry

     iteration #  3     ecut=    66.00 Ry     beta= 0.70
     Davidson diagonalization with overlap
     ethr =  1.91E-05,  avg # of iterations =  4.0

     total cpu time spent up to now is      185.9 secs

     total energy              =  -40251.70863562 Ry
     estimated scf accuracy    <       0.00286188 Ry

     iteration #  4     ecut=    66.00 Ry     beta= 0.70
     Davidson diagonalization with overlap
     ethr =  2.86E-07,  avg # of iterations = 15.0

     total cpu time spent up to now is      272.2 secs

     total energy              =  -40251.70566614 Ry
     estimated scf accuracy    <       0.06438551 Ry

     iteration #  5     ecut=    66.00 Ry     beta= 0.70
     Davidson diagonalization with overlap
     ethr =  2.86E-07,  avg # of iterations =  6.0

     total cpu time spent up to now is      325.7 secs

     total energy              =  -40251.71123414 Ry
     estimated scf accuracy    <       0.00036980 Ry

     iteration #  6     ecut=    66.00 Ry     beta= 0.70
     Davidson diagonalization with overlap
     ethr =  3.70E-08,  avg # of iterations =  5.0

     total cpu time spent up to now is      377.1 secs

     total energy              =  -40251.71129599 Ry
     estimated scf accuracy    <       0.00013746 Ry

     iteration #  7     ecut=    66.00 Ry     beta= 0.70
     Davidson diagonalization with overlap
     ethr =  1.37E-08,  avg # of iterations =  3.0

     total cpu time spent up to now is      418.5 secs

     total energy              =  -40251.71130798 Ry
     estimated scf accuracy    <       0.00005816 Ry

     iteration #  8     ecut=    66.00 Ry     beta= 0.70
     Davidson diagonalization with overlap
     ethr =  5.82E-09,  avg # of iterations =  3.0

     total cpu time spent up to now is      459.3 secs

     total energy              =  -40251.71131394 Ry
     estimated scf accuracy    <       0.00000656 Ry

     iteration #  9     ecut=    66.00 Ry     beta= 0.70
     Davidson diagonalization with overlap
     ethr =  6.56E-10,  avg # of iterations =  3.0

     total cpu time spent up to now is      503.0 secs

     total energy              =  -40251.71131472 Ry
     estimated scf accuracy    <       0.00000238 Ry

     iteration # 10     ecut=    66.00 Ry     beta= 0.70
     Davidson diagonalization with overlap
     ethr =  2.38E-10,  avg # of iterations =  3.0

     total cpu time spent up to now is      544.7 secs

     total energy              =  -40251.71131494 Ry
     estimated scf accuracy    <       0.00000182 Ry

     iteration # 11     ecut=    66.00 Ry     beta= 0.70
     Davidson diagonalization with overlap
     ethr =  1.82E-10,  avg # of iterations =  2.0

     total cpu time spent up to now is      585.0 secs

     total energy              =  -40251.71131513 Ry
     estimated scf accuracy    <       0.00000028 Ry

     iteration # 12     ecut=    66.00 Ry     beta= 0.70
     Davidson diagonalization with overlap
     ethr =  2.77E-11,  avg # of iterations =  3.0

     total cpu time spent up to now is      628.4 secs

     total energy              =  -40251.71131517 Ry
     estimated scf accuracy    <       0.00000007 Ry

     iteration # 13     ecut=    66.00 Ry     beta= 0.70
     Davidson diagonalization with overlap
     ethr =  6.56E-12,  avg # of iterations =  5.0

     total cpu time spent up to now is      674.3 secs

     total energy              =  -40251.71131518 Ry
     estimated scf accuracy    <       0.00000011 Ry

     iteration # 14     ecut=    66.00 Ry     beta= 0.70
     Davidson diagonalization with overlap
     ethr =  6.56E-12,  avg # of iterations =  3.0

     total cpu time spent up to now is      715.3 secs

     total energy              =  -40251.71131520 Ry
     estimated scf accuracy    <          8.4E-09 Ry

     iteration # 15     ecut=    66.00 Ry     beta= 0.70
     Davidson diagonalization with overlap
     ethr =  8.44E-13,  avg # of iterations =  4.0

     total cpu time spent up to now is      761.5 secs

     total energy              =  -40251.71131520 Ry
     estimated scf accuracy    <       0.00000002 Ry

     iteration # 16     ecut=    66.00 Ry     beta= 0.70
     Davidson diagonalization with overlap
     ethr =  8.44E-13,  avg # of iterations =  3.0

     total cpu time spent up to now is      803.3 secs

     total energy              =  -40251.71131520 Ry
     estimated scf accuracy    <          1.7E-09 Ry

     iteration # 17     ecut=    66.00 Ry     beta= 0.70
     Davidson diagonalization with overlap
     ethr =  1.66E-13,  avg # of iterations =  3.0

     total cpu time spent up to now is      850.6 secs

     total energy              =  -40251.71131520 Ry
     estimated scf accuracy    <          4.3E-10 Ry

     iteration # 18     ecut=    66.00 Ry     beta= 0.70
     Davidson diagonalization with overlap
     ethr =  1.00E-13,  avg # of iterations =  3.0

     total cpu time spent up to now is      892.1 secs

     total energy              =  -40251.71131520 Ry
     estimated scf accuracy    <          9.2E-10 Ry

     iteration # 19     ecut=    66.00 Ry     beta= 0.70
     Davidson diagonalization with overlap
     ethr =  1.00E-13,  avg # of iterations =  2.0

     total cpu time spent up to now is      931.6 secs

     total energy              =  -40251.71131520 Ry
     estimated scf accuracy    <          4.6E-11 Ry

     iteration # 20     ecut=    66.00 Ry     beta= 0.70
     Davidson diagonalization with overlap
     ethr =  1.00E-13,  avg # of iterations =  1.0

     total cpu time spent up to now is      970.9 secs

     total energy              =  -40251.71131520 Ry
     estimated scf accuracy    <          1.5E-11 Ry

     iteration # 21     ecut=    66.00 Ry     beta= 0.70
     Davidson diagonalization with overlap
     ethr =  1.00E-13,  avg # of iterations =  1.0

     total cpu time spent up to now is     1008.1 secs

     total energy              =  -40251.71131520 Ry
     estimated scf accuracy    <          1.8E-11 Ry

     iteration # 22     ecut=    66.00 Ry     beta= 0.70
     Davidson diagonalization with overlap
     ethr =  1.00E-13,  avg # of iterations =  1.0

     total cpu time spent up to now is     1043.4 secs

     total energy              =  -40251.71131520 Ry
     estimated scf accuracy    <          3.8E-12 Ry

     iteration # 23     ecut=    66.00 Ry     beta= 0.70
     Davidson diagonalization with overlap
     ethr =  1.00E-13,  avg # of iterations =  1.0

     total cpu time spent up to now is     1078.5 secs

     total energy              =  -40251.71131520 Ry
     estimated scf accuracy    <          2.3E-12 Ry

     iteration # 24     ecut=    66.00 Ry     beta= 0.70
     Davidson diagonalization with overlap
     ethr =  1.00E-13,  avg # of iterations =  1.0

     total cpu time spent up to now is     1113.5 secs

     total energy              =  -40251.71131520 Ry
     estimated scf accuracy    <          6.4E-13 Ry

     iteration # 25     ecut=    66.00 Ry     beta= 0.70
     Davidson diagonalization with overlap
     ethr =  1.00E-13,  avg # of iterations =  1.0

     total cpu time spent up to now is     1148.8 secs

     total energy              =  -40251.71131520 Ry
     estimated scf accuracy    <          5.7E-13 Ry

     iteration # 26     ecut=    66.00 Ry     beta= 0.70
     Davidson diagonalization with overlap
     ethr =  1.00E-13,  avg # of iterations =  1.0

     total cpu time spent up to now is     1183.9 secs

     total energy              =  -40251.71131520 Ry
     estimated scf accuracy    <          2.8E-13 Ry

     iteration # 27     ecut=    66.00 Ry     beta= 0.70
     Davidson diagonalization with overlap
     ethr =  1.00E-13,  avg # of iterations =  1.0

     total cpu time spent up to now is     1219.1 secs

     total energy              =  -40251.71131520 Ry
     estimated scf accuracy    <          1.4E-13 Ry

     iteration # 28     ecut=    66.00 Ry     beta= 0.70
     Davidson diagonalization with overlap
     ethr =  1.00E-13,  avg # of iterations =  1.0

     total cpu time spent up to now is     1254.1 secs

     total energy              =  -40251.71131520 Ry
     estimated scf accuracy    <          4.3E-13 Ry

     iteration # 29     ecut=    66.00 Ry     beta= 0.70
     Davidson diagonalization with overlap
     ethr =  1.00E-13,  avg # of iterations =  1.0

     total cpu time spent up to now is     1289.4 secs

     total energy              =  -40251.71131520 Ry
     estimated scf accuracy    <          1.3E-13 Ry

     iteration # 30     ecut=    66.00 Ry     beta= 0.70
     Davidson diagonalization with overlap
     ethr =  1.00E-13,  avg # of iterations =  1.0

     total cpu time spent up to now is     1324.5 secs

     total energy              =  -40251.71131520 Ry
     estimated scf accuracy    <          4.1E-15 Ry

     iteration # 31     ecut=    66.00 Ry     beta= 0.70
     Davidson diagonalization with overlap
     ethr =  1.00E-13,  avg # of iterations =  1.0

     total cpu time spent up to now is     1359.5 secs

     total energy              =  -40251.71131520 Ry
     estimated scf accuracy    <          3.3E-15 Ry

     iteration # 32     ecut=    66.00 Ry     beta= 0.70
     Davidson diagonalization with overlap
     ethr =  1.00E-13,  avg # of iterations =  1.0

     total cpu time spent up to now is     1394.8 secs

     total energy              =  -40251.71131520 Ry
     estimated scf accuracy    <          1.4E-15 Ry

     iteration # 33     ecut=    66.00 Ry     beta= 0.70
     Davidson diagonalization with overlap
     ethr =  1.00E-13,  avg # of iterations =  1.0

     total cpu time spent up to now is     1433.0 secs

     total energy              =  -40251.71131520 Ry
     estimated scf accuracy    <          1.0E-15 Ry

     iteration # 34     ecut=    66.00 Ry     beta= 0.70
     Davidson diagonalization with overlap
     ethr =  1.00E-13,  avg # of iterations =  1.0

     total cpu time spent up to now is     1468.2 secs

     total energy              =  -40251.71131520 Ry
     estimated scf accuracy    <          5.9E-16 Ry

     iteration # 35     ecut=    66.00 Ry     beta= 0.70
     Davidson diagonalization with overlap
     ethr =  1.00E-13,  avg # of iterations =  1.0

     total cpu time spent up to now is     1503.2 secs

     total energy              =  -40251.71131520 Ry
     estimated scf accuracy    <          2.4E-16 Ry

     iteration # 36     ecut=    66.00 Ry     beta= 0.70
     Davidson diagonalization with overlap
     ethr =  1.00E-13,  avg # of iterations =  1.0

     total cpu time spent up to now is     1538.5 secs

     total energy              =  -40251.71131520 Ry
     estimated scf accuracy    <          1.0E-16 Ry

     iteration # 37     ecut=    66.00 Ry     beta= 0.70
     Davidson diagonalization with overlap
     ethr =  1.00E-13,  avg # of iterations =  1.0

     total cpu time spent up to now is     1579.0 secs

     End of self-consistent calculation

          k = 0.0000 0.0000 0.0000 (175499 PWs)   bands (ev):

    -7.1211  -6.6506  -6.6499  -6.6499  -6.6499  -6.6499  -6.6499  -6.6498
    -6.6491  -6.4856  -6.4850  -6.4849  -6.4849  -6.4849  -6.4843  -5.8987
    -5.8973  -5.8973  -5.8972  -5.8972  -5.8972  -5.8972  -5.8972  -5.8972
    -5.8971  -5.8971  -5.8958  -5.4583  -5.4550  -5.4550  -5.4550  -5.4549
    -5.4549  -5.4548  -5.4548  -5.4548  -5.4548  -5.4548  -5.4548  -5.4548
    -5.4548  -5.4548  -5.4548  -5.4548  -5.4548  -5.4547  -5.4547  -5.4546
    -5.4546  -5.4546  -5.4523  -5.4489  -5.4483  -5.4482  -5.4482  -5.4482
    -5.4482  -5.4482  -5.4466  -4.7125  -4.7096  -4.7096  -4.7095  -4.7095
    -4.7095  -4.7095  -4.7095  -4.7094  -4.7094  -4.7094  -4.7094  -4.7094
    -4.7094  -4.7094  -4.7094  -4.7094  -4.7094  -4.7094  -4.7093  -4.7093
    -4.7093  -4.7092  -4.7065  -4.6349  -4.6341  -4.6340  -4.6340  -4.6340
    -4.6332  -4.2786  -4.2755  -4.2754  -4.2754  -4.2753  -4.2753  -4.2753
    -4.2753  -4.2753  -4.2752  -4.2752  -4.2752  -4.2752  -4.2752  -4.2752
    -4.2752  -4.2752  -4.2752  -4.2752  -4.2752  -4.2751  -4.2751  -4.2750
    -4.2719  -3.5924  -3.5908  -3.5908  -3.5908  -3.5908  -3.5907  -3.5907
    -3.5907  -3.5907  -3.5907  -3.5906  -3.5891  -2.9390  -2.9374  -2.9374
    -2.9373  -2.9373  -2.9373  -2.9373  -2.9372  -2.9372  -2.9372  -2.9371
    -2.9356  -2.1441  -2.1409  -2.1409  -2.1409  -2.1408  -2.1408  -2.1408
    -2.1408  -2.1408  -2.1408  -2.1407  -2.1407  -2.1407  -2.1407  -2.1407
    -2.1407  -2.1407  -2.1407  -2.1406  -2.1406  -2.1405  -2.1405  -2.1405
    -2.1375  -1.9743  -1.9714  -1.9713  -1.9711  -1.9711  -1.9711  -1.9710
    -1.9710  -1.9710  -1.9710  -1.9710  -1.9710  -1.9710  -1.9710  -1.9710
    -1.9710  -1.9710  -1.9709  -1.9709  -1.9709  -1.9709  -1.9707  -1.9706
    -1.9676  -1.7787  -1.7779  -1.7778  -1.7778  -1.7778  -1.7770  -1.4077
    -1.4069  -1.4067  -1.4067  -1.4067  -1.4067  -1.4065  -1.4057  -0.7628
    -0.7603  -0.7600  -0.7599  -0.7599  -0.7598  -0.7598  -0.7598  -0.7598
    -0.7598  -0.7597  -0.7597  -0.7597  -0.7597  -0.7597  -0.7597  -0.7597
    -0.7597  -0.7597  -0.7596  -0.7596  -0.7595  -0.7592  -0.7566   0.0317
     0.0330   0.0331   0.0331   0.0332   0.0332   0.0332   0.0332   0.0332
     0.0333   0.0334   0.0346   1.4523   1.4526   1.4529   1.4530   1.4530
     1.4530   1.4530   1.4530   1.4531   1.4531   1.4534   1.4536   1.5044
     1.5047   1.5051   1.5056   1.5056   1.5056   1.5056   1.5057   1.5057
     1.5057   1.5057   1.5057   1.5057   1.5057   1.5058   1.5058   1.5058
     1.5058   1.5058   1.5058   1.5059   1.5063   1.5068   1.5070   1.7043
     1.7051   1.7051   1.7051   1.7051   1.7057   1.7119   1.7124   1.7127
     1.7127   1.7127   1.7127   1.7129   1.7136   1.8562   1.8566   1.8568
     1.8576   1.8576   1.8577   1.8577   1.8577   1.8577   1.8577   1.8577
     1.8577   1.8577   1.8577   1.8577   1.8577   1.8577   1.8578   1.8578
     1.8578   1.8578   1.8586   1.8588   1.8592   2.4175   2.4178   2.4180
     2.4183   2.4184   2.4184   2.4184   2.4184   2.4185   2.4188   2.4190
     2.4192   2.4675   2.4676   2.4684   2.4687   2.4688   2.4688   2.4689
     2.4689   2.4689   2.4689   2.4689   2.4689   2.4689   2.4689   2.4689
     2.4689   2.4689   2.4690   2.4690   2.4690   2.4691   2.4694   2.4702
     2.4703   2.6511   2.6519   2.6519   2.6527   2.6527   2.6528   2.6528
     2.6528   2.6528   2.6529   2.6529   2.6529   2.6529   2.6529   2.6529
     2.6529   2.6530   2.6530   2.6530   2.6530   2.6531   2.6538   2.6539
     2.6547   2.6811   2.6817   2.6817   2.6818   2.6818   2.6818   2.6818
     2.6819   2.6819   2.6820   2.6820   2.6827   2.7947   2.7951   2.7953
     2.7953   2.7954   2.7954   2.7954   2.7955   2.7955   2.7955   2.7958
     2.7962   3.3932   3.3948   3.3949   3.3950   3.3953   3.3953   3.3953
     3.3953   3.3953   3.3953   3.3953   3.3953   3.3953   3.3953   3.3954
     3.3954   3.3954   3.3954   3.3954   3.3954   3.3957   3.3958   3.3959
     3.3975   3.6587   3.6599   3.6606   3.6606   3.6608   3.6608   3.6608
     3.6608   3.6608   3.6608   3.6609   3.6609   3.6609   3.6609   3.6609
     3.6609   3.6609   3.6609   3.6609   3.6610   3.6611   3.6611   3.6618
     3.6631   3.9444   3.9453   3.9455   3.9456   3.9457   3.9457   3.9457
     3.9457   3.9457   3.9458   3.9460   3.9470   4.2420   4.2434   4.2437
     4.2437   4.2438   4.2439   4.2439   4.2439   4.2439   4.2439   4.2439
     4.2439   4.2440   4.2441   4.2444   4.2458   4.5513   4.5524   4.5527
     4.5527   4.5528   4.5528   4.5528   4.5528   4.5529   4.5530   4.5533
     4.5544   4.8663   4.8683   4.8683   4.8684   4.8685   4.8685   4.8685
     4.8686   4.8686   4.8686   4.8686   4.8686   4.8687   4.8688   4.8688
     4.8709   5.4702   5.5229   5.5234   5.5240   5.7062   5.7067   5.7067
     5.7067   5.7067   5.7067   5.7068   5.7073   5.9887   5.9890   5.9894
     5.9894   5.9897   5.9900   6.3160   6.3165   6.3166   6.3166   6.3166
     6.3166   6.3167   6.3172   6.4418   6.4423   6.4429   6.4430   6.4430
     6.4430   6.4430   6.4431   6.4431   6.4432   6.4437   6.4442   6.7828
     6.7831   6.7834   6.7834   6.7836   6.7839   6.8013   6.8016   6.8019
     6.8019   6.8022   6.8025   7.0695   7.0703   7.0713   7.0715   7.0716
     7.0716   7.0717   7.0717   7.0717   7.0717   7.0717   7.0717   7.0717
     7.0717   7.0717   7.0717   7.0718   7.0718   7.0718   7.0718   7.0719
     7.0722   7.0731   7.0738   7.1377   7.1383   7.1393   7.1394   7.1395
     7.1395   7.1396   7.1396   7.1396   7.1396   7.1396   7.1396   7.1396
     7.1396   7.1397   7.1397   7.1397   7.1397   7.1397   7.1398   7.1399
     7.1399   7.1410   7.1417   7.5049   7.5050   7.5052   7.5053   7.5054

     occupation numbers 
     1.0000   1.0000   1.0000   1.0000   1.0000   1.0000   1.0000   1.0000
     1.0000   1.0000   1.0000   1.0000   1.0000   1.0000   1.0000   1.0000
     1.0000   1.0000   1.0000   1.0000   1.0000   1.0000   1.0000   1.0000
     1.0000   1.0000   1.0000   1.0000   1.0000   1.0000   1.0000   1.0000
     1.0000   1.0000   1.0000   1.0000   1.0000   1.0000   1.0000   1.0000
     1.0000   1.0000   1.0000   1.0000   1.0000   1.0000   1.0000   1.0000
     1.0000   1.0000   1.0000   1.0000   1.0000   1.0000   1.0000   1.0000
     1.0000   1.0000   1.0000   1.0000   1.0000   1.0000   1.0000   1.0000
     1.0000   1.0000   1.0000   1.0000   1.0000   1.0000   1.0000   1.0000
     1.0000   1.0000   1.0000   1.0000   1.0000   1.0000   1.0000   1.0000
     1.0000   1.0000   1.0000   1.0000   1.0000   1.0000   1.0000   1.0000
     1.0000   1.0000   1.0000   1.0000   1.0000   1.0000   1.0000   1.0000
     1.0000   1.0000   1.0000   1.0000   1.0000   1.0000   1.0000   1.0000
     1.0000   1.0000   1.0000   1.0000   1.0000   1.0000   1.0000   1.0000
     1.0000   1.0000   1.0000   1.0000   1.0000   1.0000   1.0000   1.0000
     1.0000   1.0000   1.0000   1.0000   1.0000   1.0000   1.0000   1.0000
     1.0000   1.0000   1.0000   1.0000   1.0000   1.0000   1.0000   1.0000
     1.0000   1.0000   1.0000   1.0000   1.0000   1.0000   1.0000   1.0000
     1.0000   1.0000   1.0000   1.0000   1.0000   1.0000   1.0000   1.0000
     1.0000   1.0000   1.0000   1.0000   1.0000   1.0000   1.0000   1.0000
     1.0000   1.0000   1.0000   1.0000   1.0000   1.0000   1.0000   1.0000
     1.0000   1.0000   1.0000   1.0000   1.0000   1.0000   1.0000   1.0000
     1.0000   1.0000   1.0000   1.0000   1.0000   1.0000   1.0000   1.0000
     1.0000   1.0000   1.0000   1.0000   1.0000   1.0000   1.0000   1.0000
     1.0000   1.0000   1.0000   1.0000   1.0000   1.0000   1.0000   1.0000
     1.0000   1.0000   1.0000   1.0000   1.0000   1.0000   1.0000   1.0000
     1.0000   1.0000   1.0000   1.0000   1.0000   1.0000   1.0000   1.0000
     1.0000   1.0000   1.0000   1.0000   1.0000   1.0000   1.0000   1.0000
     1.0000   1.0000   1.0000   1.0000   1.0000   1.0000   1.0000   1.0000
     1.0000   1.0000   1.0000   1.0000   1.0000   1.0000   1.0000   1.0000
     1.0000   1.0000   1.0000   1.0000   1.0000   1.0000   1.0000   1.0000
     1.0000   1.0000   1.0000   1.0000   1.0000   1.0000   1.0000   1.0000
     1.0000   1.0000   1.0000   1.0000   1.0000   1.0000   1.0000   1.0000
     1.0000   1.0000   1.0000   1.0000   1.0000   1.0000   1.0000   1.0000
     1.0000   1.0000   1.0000   1.0000   1.0000   1.0000   1.0000   1.0000
     1.0000   1.0000   1.0000   1.0000   1.0000   1.0000   1.0000   1.0000
     1.0000   1.0000   1.0000   1.0000   1.0000   1.0000   1.0000   1.0000
     1.0000   1.0000   1.0000   1.0000   1.0000   1.0000   1.0000   1.0000
     1.0000   1.0000   1.0000   1.0000   1.0000   1.0000   1.0000   1.0000
     1.0000   1.0000   1.0000   1.0000   1.0000   1.0000   1.0000   1.0000
     1.0000   1.0000   1.0000   1.0000   1.0000   1.0000   1.0000   1.0000
     1.0000   1.0000   1.0000   1.0000   1.0000   1.0000   1.0000   1.0000
     1.0000   1.0000   1.0000   1.0000   1.0000   1.0000   1.0000   1.0000
     1.0000   1.0000   1.0000   1.0000   1.0000   1.0000   1.0000   1.0000
     1.0000   1.0000   1.0000   1.0000   1.0000   1.0000   1.0000   1.0000
     1.0000   1.0000   1.0000   1.0000   1.0000   1.0000   1.0000   1.0000
     1.0000   1.0000   1.0000   1.0000   1.0000   1.0000   1.0000   1.0000
     1.0000   1.0000   1.0000   1.0000   1.0000   1.0000   1.0000   1.0000
     1.0000   1.0000   1.0000   1.0000   1.0000   1.0000   1.0000   1.0000
     1.0000   1.0000   1.0000   1.0000   1.0000   1.0000   1.0000   1.0000
     1.0000   1.0000   1.0000   1.0000   1.0000   1.0000   1.0000   1.0000
     1.0000   1.0000   1.0000   1.0000   1.0000   1.0000   1.0000   1.0000
     1.0000   1.0000   1.0000   1.0000   1.0000   1.0000   1.0000   1.0000
     1.0000   1.0000   1.0000   1.0000   1.0000   1.0000   1.0000   1.0000
     1.0000   1.0000   1.0000   1.0000   1.0000   1.0000   1.0000   1.0000
     1.0000   1.0000   1.0000   1.0000   1.0000   1.0000   1.0000   1.0000
     1.0000   1.0000   1.0000   1.0000   1.0000   1.0000   1.0000   1.0000
     1.0000   1.0000   1.0000   1.0000   1.0000   1.0000   1.0000   1.0000
     1.0000   1.0000   1.0000   1.0000   1.0000   1.0000   1.0000   1.0000
     1.0000   1.0000   1.0000   1.0000   1.0000   1.0000   1.0000   1.0000
     1.0000   0.9995   0.9994   0.9994   0.9994   0.9994   0.9994   0.9994
     0.9994   0.9994   0.9994   0.9994   0.9994   0.9994   0.9994   0.9994
     0.9994   0.5535   0.4445   0.4434   0.4423   0.1374   0.1368   0.1368
     0.1368   0.1368   0.1368   0.1367   0.1361   0.0052   0.0052   0.0052
     0.0052   0.0051   0.0051   0.0000   0.0000   0.0000   0.0000   0.0000
     0.0000   0.0000   0.0000   0.0000   0.0000   0.0000   0.0000   0.0000
     0.0000   0.0000   0.0000   0.0000   0.0000   0.0000   0.0000   0.0000
     0.0000   0.0000   0.0000   0.0000   0.0000   0.0000   0.0000   0.0000
     0.0000   0.0000   0.0000   0.0000   0.0000   0.0000   0.0000   0.0000
     0.0000   0.0000   0.0000   0.0000   0.0000   0.0000   0.0000   0.0000
     0.0000   0.0000   0.0000   0.0000   0.0000   0.0000   0.0000   0.0000
     0.0000   0.0000   0.0000   0.0000   0.0000   0.0000   0.0000   0.0000
     0.0000   0.0000   0.0000   0.0000   0.0000   0.0000   0.0000   0.0000
     0.0000   0.0000   0.0000   0.0000   0.0000   0.0000   0.0000   0.0000
     0.0000   0.0000   0.0000   0.0000   0.0000   0.0000   0.0000   0.0000

     the Fermi energy is     5.4960 ev

!    total energy              =  -40251.71131520 Ry

     total all-electron energy =  -1048736.883953 Ry
     estimated scf accuracy    <          1.9E-17 Ry
     smearing contrib. (-TS)   =      -0.09768596 Ry
     internal energy E=F+TS    =  -40251.61362924 Ry

     The total energy is F=E-TS. E is the sum of the following terms:
     one-electron contribution =     679.08162716 Ry
     hartree contribution      =     145.89612410 Ry
     xc contribution           =   -1646.96278874 Ry
     ewald contribution        =   -2005.02506381 Ry
     one-center paw contrib.   =  -37424.60352794 Ry
      -> PAW hartree energy AE =      48.45743445 Ry
      -> PAW hartree energy PS =     -48.40731804 Ry
      -> PAW xc energy AE      =   -1714.32103130 Ry
      -> PAW xc energy PS      =      67.58800943 Ry
      -> total E_H with PAW    =     145.94624050 Ry
      -> total E_XC with PAW   =   -3293.69581061 Ry

     convergence has been achieved in  37 iterations

     Forces acting on atoms (cartesian axes, Ry/au):

     atom    1 type  1   force =    -0.00010384   -0.00425025    0.00425025
     atom    2 type  1   force =     0.00000822    0.00030642   -0.00031592
     atom    3 type  1   force =     0.00007212   -0.00015916   -0.00009055
     atom    4 type  1   force =     0.00001611    0.00006659   -0.00000675
     atom    5 type  1   force =     0.00001395   -0.00004071   -0.00001421
     atom    6 type  1   force =    -0.00000525    0.00002355    0.00000684
     atom    7 type  1   force =     0.00000307   -0.00002967   -0.00000338
     atom    8 type  1   force =    -0.00001189    0.00003782    0.00002125
     atom    9 type  1   force =     0.00001859   -0.00010443   -0.00003707
     atom   10 type  1   force =     0.00154001    0.00183859   -0.00183859
     atom   11 type  1   force =     0.00000015    0.00001784   -0.00001778
     atom   12 type  1   force =    -0.00000021   -0.00000940    0.00000949
     atom   13 type  1   force =     0.00001265    0.00000698   -0.00000221
     atom   14 type  1   force =    -0.00001370   -0.00000473    0.00000603
     atom   15 type  1   force =     0.00000534    0.00000438   -0.00000036
     atom   16 type  1   force =    -0.00001081   -0.00000189    0.00000189
     atom   17 type  1   force =     0.00001164    0.00000402   -0.00000402
     atom   18 type  1   force =    -0.00001189   -0.00002125   -0.00003782
     atom   19 type  1   force =     0.00001859    0.00003707    0.00010443
     atom   20 type  1   force =    -0.00002719   -0.00000717    0.00000922
     atom   21 type  1   force =     0.00000006    0.00000027   -0.00000020
     atom   22 type  1   force =    -0.00000008   -0.00000158    0.00000158
     atom   23 type  1   force =     0.00000570    0.00000265   -0.00000265
     atom   24 type  1   force =    -0.00001370   -0.00000603    0.00000473
     atom   25 type  1   force =     0.00000534    0.00000036   -0.00000438
     atom   26 type  1   force =    -0.00000525   -0.00000684   -0.00002355
     atom   27 type  1   force =     0.00000307    0.00000338    0.00002967
     atom   28 type  1   force =    -0.00000371    0.00000023    0.00000121
     atom   29 type  1   force =     0.00001373    0.00000327   -0.00000600
     atom   30 type  1   force =    -0.00000616   -0.00000216   -0.00000059
     atom   31 type  1   force =     0.00000006    0.00000020   -0.00000027
     atom   32 type  1   force =    -0.00000021   -0.00000949    0.00000940
     atom   33 type  1   force =     0.00001265    0.00000221   -0.00000698
     atom   34 type  1   force =     0.00001611    0.00000675   -0.00006659
     atom   35 type  1   force =     0.00001395    0.00001421    0.00004071
     atom   36 type  1   force =    -0.00000467    0.00000201    0.00000216
     atom   37 type  1   force =     0.00000438    0.00000134   -0.00000343
     atom   38 type  1   force =    -0.00000261   -0.00000054    0.00000054
     atom   39 type  1   force =     0.00000772    0.00000267   -0.00000267
     atom   40 type  1   force =    -0.00000616    0.00000059    0.00000216
     atom   41 type  1   force =     0.00000015    0.00001778   -0.00001784
     atom   42 type  1   force =     0.00000822    0.00031592   -0.00030642
     atom   43 type  1   force =     0.00007212    0.00009055    0.00015916
     atom   44 type  1   force =    -0.00002003   -0.00000221    0.00000221
     atom   45 type  1   force =     0.00000969    0.00000402   -0.00000402
     atom   46 type  1   force =    -0.00000467   -0.00000216   -0.00000201
     atom   47 type  1   force =     0.00000438    0.00000343   -0.00000134
     atom   48 type  1   force =    -0.00000371   -0.00000121   -0.00000023
     atom   49 type  1   force =     0.00001373    0.00000600   -0.00000327
     atom   50 type  1   force =    -0.00002719   -0.00000922    0.00000717
     atom   51 type  1   force =    -0.00007326    0.00009044    0.00015758
     atom   52 type  1   force =    -0.00001642    0.00000689   -0.00006522
     atom   53 type  1   force =    -0.00000003    0.00001962   -0.00001965
     atom   54 type  1   force =     0.00000004   -0.00001842    0.00001850
     atom   55 type  1   force =    -0.00000228    0.00001006   -0.00000798
     atom   56 type  1   force =     0.00000289   -0.00001561    0.00001686
     atom   57 type  1   force =    -0.00000295    0.00001672   -0.00001388
     atom   58 type  1   force =    -0.00002826   -0.00000486    0.00000486
     atom   59 type  1   force =     0.00005414    0.00011067   -0.00011067
     atom   60 type  1   force =    -0.00000680   -0.00002729    0.00002944
     atom   61 type  1   force =    -0.00001258    0.00000219   -0.00000706
     atom   62 type  1   force =     0.00001361   -0.00000604    0.00000487
     atom   63 type  1   force =     0.00000000    0.00000488   -0.00000496
     atom   64 type  1   force =     0.00000006   -0.00000630    0.00000630
     atom   65 type  1   force =     0.00000037    0.00000532   -0.00000532
     atom   66 type  1   force =     0.00000289   -0.00001686    0.00001561
     atom   67 type  1   force =    -0.00000295    0.00001388   -0.00001672
     atom   68 type  1   force =     0.00000127   -0.00000275    0.00000295
     atom   69 type  1   force =     0.00000002    0.00000435   -0.00000503
     atom   70 type  1   force =    -0.00000023   -0.00000421    0.00000446
     atom   71 type  1   force =    -0.00000560    0.00000262   -0.00000262
     atom   72 type  1   force =     0.00001361   -0.00000487    0.00000604
     atom   73 type  1   force =     0.00000000    0.00000496   -0.00000488
     atom   74 type  1   force =     0.00000004   -0.00001850    0.00001842
     atom   75 type  1   force =    -0.00000228    0.00000798   -0.00001006
     atom   76 type  1   force =     0.00000126   -0.00000012    0.00000124
     atom   77 type  1   force =     0.00000013    0.00000107    0.00000012
     atom   78 type  1   force =     0.00000163    0.00000095   -0.00000016
     atom   79 type  1   force =     0.00000078    0.00000020   -0.00000046
     atom   80 type  1   force =     0.00000002   -0.00000140    0.00000140
     atom   81 type  1   force =    -0.00001258    0.00000706   -0.00000219
     atom   82 type  1   force =    -0.00001642    0.00006522   -0.00000689
     atom   83 type  1   force =    -0.00000003    0.00001965   -0.00001962
     atom   84 type  1   force =    -0.00000003   -0.00000425    0.00000422
     atom   85 type  1   force =    -0.00000131   -0.00000009   -0.00000131
     atom   86 type  1   force =     0.00000114   -0.00000033    0.00000033
     atom   87 type  1   force =    -0.00000123   -0.00000024    0.00000024
     atom   88 type  1   force =     0.00000163    0.00000016   -0.00000095
     atom   89 type  1   force =     0.00000078    0.00000046   -0.00000020
     atom   90 type  1   force =    -0.00000023   -0.00000446    0.00000421
     atom   91 type  1   force =    -0.00007326   -0.00015758   -0.00009044
     atom   92 type  1   force =     0.00002006   -0.00000223    0.00000223
     atom   93 type  1   force =    -0.00000005    0.00000506   -0.00000506
     atom   94 type  1   force =    -0.00000003   -0.00000422    0.00000425
     atom   95 type  1   force =    -0.00000131    0.00000131    0.00000009
     atom   96 type  1   force =     0.00000126   -0.00000124    0.00000012
     atom   97 type  1   force =     0.00000013   -0.00000012   -0.00000107
     atom   98 type  1   force =     0.00000127   -0.00000295    0.00000275
     atom   99 type  1   force =     0.00000002    0.00000503   -0.00000435
     atom  100 type  1   force =    -0.00000680   -0.00002944    0.00002729
     atom  101 type  1   force =    -0.00001411    0.00001432    0.00004016
     atom  102 type  1   force =     0.00000533   -0.00000691   -0.00002316
     atom  103 type  1   force =     0.00000230    0.00000803   -0.00001014
     atom  104 type  1   force =    -0.00000276   -0.00001686    0.00001565
     atom  105 type  1   force =    -0.00000007    0.00000575   -0.00000567
     atom  106 type  1   force =    -0.00000000   -0.00001217    0.00001217
     atom  107 type  1   force =     0.00001088    0.00001745   -0.00001745
     atom  108 type  1   force =     0.00000117   -0.00000449    0.00000167
     atom  109 type  1   force =     0.00000172    0.00001292   -0.00001788
     atom  110 type  1   force =    -0.00000142   -0.00000686    0.00000844
     atom  111 type  1   force =    -0.00000540    0.00000033   -0.00000452
     atom  112 type  1   force =     0.00001086   -0.00000206    0.00000206
     atom  113 type  1   force =    -0.00000055    0.00000543   -0.00000543
     atom  114 type  1   force =    -0.00000276   -0.00001565    0.00001686
     atom  115 type  1   force =    -0.00000007    0.00000567   -0.00000575
     atom  116 type  1   force =    -0.00000005    0.00000117   -0.00000116
     atom  117 type  1   force =    -0.00000140   -0.00000022   -0.00000002
     atom  118 type  1   force =     0.00000047    0.00000210   -0.00000134
     atom  119 type  1   force =     0.00000056   -0.00000110   -0.00000206
     atom  120 type  1   force =    -0.00000129   -0.00000010    0.00000118
     atom  121 type  1   force =    -0.00000540    0.00000452   -0.00000033
     atom  122 type  1   force =     0.00000533    0.00002316    0.00000691
     atom  123 type  1   force =     0.00000230    0.00001014   -0.00000803
     atom  124 type  1   force =    -0.00000135   -0.00000118    0.00000016
     atom  125 type  1   force =     0.00000004   -0.00000151    0.00000148
     atom  126 type  1   force =    -0.00000002    0.00000107   -0.00000108
     atom  127 type  1   force =     0.00000003   -0.00000075    0.00000115
     atom  128 type  1   force =     0.00000060    0.00000169   -0.00000169
     atom  129 type  1   force =     0.00000125   -0.00000028    0.00000028
     atom  130 type  1   force =    -0.00000129   -0.00000118    0.00000010
     atom  131 type  1   force =    -0.00001411   -0.00004016   -0.00001432
     atom  132 type  1   force =     0.00000473   -0.00000230   -0.00000201
     atom  133 type  1   force =     0.00000132    0.00000127    0.00000005
     atom  134 type  1   force =    -0.00000117   -0.00000031    0.00000031
     atom  135 type  1   force =     0.00000001   -0.00000115    0.00000115
     atom  136 type  1   force =    -0.00000002    0.00000108   -0.00000107
     atom  137 type  1   force =     0.00000003   -0.00000115    0.00000075
     atom  138 type  1   force =     0.00000047    0.00000134   -0.00000210
     atom  139 type  1   force =     0.00000056    0.00000206    0.00000110
     atom  140 type  1   force =    -0.00000142   -0.00000844    0.00000686
     atom  141 type  1   force =    -0.00000973    0.00000422   -0.00000422
     atom  142 type  1   force =     0.00000473    0.00000201    0.00000230
[...]
     atom   71 type  1   force =     0.00000000    0.00000000   -0.00000000
     atom   72 type  1   force =     0.00000000    0.00000000   -0.00000000
     atom   73 type  1   force =     0.00000000    0.00000000   -0.00000000
     atom   74 type  1   force =    -0.00000000    0.00000000    0.00000000
     atom   75 type  1   force =    -0.00000000    0.00000000    0.00000000
     atom   76 type  1   force =    -0.00000000   -0.00000000    0.00000000
     atom   77 type  1   force =    -0.00000000   -0.00000000    0.00000000
     atom   78 type  1   force =     0.00000000   -0.00000000    0.00000000
     atom   79 type  1   force =     0.00000000    0.00000000    0.00000000
     atom   80 type  1   force =     0.00000000    0.00000000    0.00000000
     atom   81 type  1   force =     0.00000000    0.00000000   -0.00000000
     atom   82 type  1   force =     0.00000000    0.00000000   -0.00000000
     atom   83 type  1   force =     0.00000000    0.00000000   -0.00000000
     atom   84 type  1   force =    -0.00000000   -0.00000000   -0.00000000
     atom   85 type  1   force =    -0.00000000   -0.00000000    0.00000000
     atom   86 type  1   force =    -0.00000000   -0.00000000    0.00000000
     atom   87 type  1   force =    -0.00000000   -0.00000000    0.00000000
     atom   88 type  1   force =     0.00000000   -0.00000000    0.00000000
     atom   89 type  1   force =     0.00000000   -0.00000000    0.00000000
     atom   90 type  1   force =     0.00000000   -0.00000000    0.00000000
     atom   91 type  1   force =     0.00000000   -0.00000000   -0.00000000
     atom   92 type  1   force =     0.00000000   -0.00000000   -0.00000000
     atom   93 type  1   force =     0.00000000   -0.00000000    0.00000000
     atom   94 type  1   force =    -0.00000000   -0.00000000    0.00000000
     atom   95 type  1   force =    -0.00000000   -0.00000000    0.00000000
     atom   96 type  1   force =    -0.00000000   -0.00000000    0.00000000
     atom   97 type  1   force =    -0.00000000   -0.00000000    0.00000000
     atom   98 type  1   force =     0.00000000   -0.00000000    0.00000000
     atom   99 type  1   force =     0.00000000   -0.00000000    0.00000000
     atom  100 type  1   force =     0.00000000   -0.00000000    0.00000000
     atom  101 type  1   force =     0.00000000    0.00000000   -0.00000000
     atom  102 type  1   force =     0.00000000    0.00000000   -0.00000000
     atom  103 type  1   force =    -0.00000000    0.00000000   -0.00000000
     atom  104 type  1   force =    -0.00000000   -0.00000000    0.00000000
     atom  105 type  1   force =    -0.00000000   -0.00000000    0.00000000
     atom  106 type  1   force =    -0.00000000   -0.00000000    0.00000000
     atom  107 type  1   force =     0.00000000   -0.00000000    0.00000000
     atom  108 type  1   force =     0.00000000    0.00000000   -0.00000000
     atom  109 type  1   force =     0.00000000    0.00000000   -0.00000000
     atom  110 type  1   force =    -0.00000000    0.00000000   -0.00000000
     atom  111 type  1   force =     0.00000000    0.00000000   -0.00000000
     atom  112 type  1   force =     0.00000000    0.00000000    0.00000000
     atom  113 type  1   force =     0.00000000    0.00000000    0.00000000
     atom  114 type  1   force =    -0.00000000    0.00000000    0.00000000
     atom  115 type  1   force =    -0.00000000   -0.00000000    0.00000000
     atom  116 type  1   force =    -0.00000000   -0.00000000    0.00000000
     atom  117 type  1   force =     0.00000000   -0.00000000    0.00000000
     atom  118 type  1   force =     0.00000000    0.00000000    0.00000000
     atom  119 type  1   force =     0.00000000    0.00000000    0.00000000
     atom  120 type  1   force =     0.00000000    0.00000000    0.00000000
     atom  121 type  1   force =     0.00000000    0.00000000    0.00000000
     atom  122 type  1   force =     0.00000000    0.00000000    0.00000000
     atom  123 type  1   force =    -0.00000000    0.00000000    0.00000000
     atom  124 type  1   force =    -0.00000000   -0.00000000    0.00000000
     atom  125 type  1   force =    -0.00000000   -0.00000000    0.00000000
     atom  126 type  1   force =    -0.00000000   -0.00000000    0.00000000
     atom  127 type  1   force =     0.00000000   -0.00000000    0.00000000
     atom  128 type  1   force =     0.00000000   -0.00000000    0.00000000
     atom  129 type  1   force =     0.00000000    0.00000000    0.00000000
     atom  130 type  1   force =     0.00000000   -0.00000000    0.00000000
     atom  131 type  1   force =     0.00000000    0.00000000   -0.00000000
     atom  132 type  1   force =    -0.00000000    0.00000000   -0.00000000
     atom  133 type  1   force =    -0.00000000   -0.00000000   -0.00000000
     atom  134 type  1   force =    -0.00000000   -0.00000000   -0.00000000
     atom  135 type  1   force =    -0.00000000   -0.00000000    0.00000000
     atom  136 type  1   force =    -0.00000000   -0.00000000    0.00000000
     atom  137 type  1   force =     0.00000000   -0.00000000    0.00000000
     atom  138 type  1   force =     0.00000000   -0.00000000    0.00000000
     atom  139 type  1   force =     0.00000000   -0.00000000    0.00000000
     atom  140 type  1   force =     0.00000000    0.00000000   -0.00000000
     atom  141 type  1   force =    -0.00000000    0.00000000   -0.00000000
     atom  142 type  1   force =     0.00000000    0.00000000   -0.00000000
     atom  143 type  1   force =    -0.00000000   -0.00000000   -0.00000000
     atom  144 type  1   force =    -0.00000000   -0.00000000   -0.00000000
     atom  145 type  1   force =    -0.00000000   -0.00000000    0.00000000
     atom  146 type  1   force =    -0.00000000   -0.00000000    0.00000000
     atom  147 type  1   force =     0.00000000   -0.00000000    0.00000000
     atom  148 type  1   force =     0.00000000   -0.00000000    0.00000000
     atom  149 type  1   force =     0.00000000   -0.00000000   -0.00000000
     atom  150 type  1   force =    -0.00000000    0.00000000   -0.00000000
     atom  151 type  1   force =    -0.00000000    0.00000000   -0.00000000
     atom  152 type  1   force =    -0.00000000    0.00000000   -0.00000000
     atom  153 type  1   force =    -0.00000000   -0.00000000   -0.00000000
     atom  154 type  1   force =    -0.00000000    0.00000000    0.00000000
     atom  155 type  1   force =    -0.00000000   -0.00000000    0.00000000
     atom  156 type  1   force =    -0.00000000   -0.00000000    0.00000000
     atom  157 type  1   force =    -0.00000000   -0.00000000   -0.00000000
     atom  158 type  1   force =    -0.00000000   -0.00000000   -0.00000000
     atom  159 type  1   force =    -0.00000000    0.00000000   -0.00000000
     atom  160 type  1   force =    -0.00000000    0.00000000   -0.00000000
     atom  161 type  1   force =     0.00000000    0.00000000   -0.00000000
     atom  162 type  1   force =     0.00000000    0.00000000   -0.00000000
     atom  163 type  1   force =    -0.00000000    0.00000000    0.00000000
     atom  164 type  1   force =    -0.00000000    0.00000000    0.00000000
     atom  165 type  1   force =    -0.00000000   -0.00000000    0.00000000
     atom  166 type  1   force =    -0.00000000   -0.00000000   -0.00000000
     atom  167 type  1   force =    -0.00000000   -0.00000000   -0.00000000
     atom  168 type  1   force =    -0.00000000   -0.00000000   -0.00000000
     atom  169 type  1   force =     0.00000000    0.00000000   -0.00000000
     atom  170 type  1   force =    -0.00000000    0.00000000   -0.00000000
     atom  171 type  1   force =     0.00000000    0.00000000    0.00000000
     atom  172 type  1   force =     0.00000000    0.00000000   -0.00000000
     atom  173 type  1   force =     0.00000000    0.00000000   -0.00000000
     atom  174 type  1   force =     0.00000000   -0.00000000   -0.00000000
     atom  175 type  1   force =    -0.00000000   -0.00000000   -0.00000000
     atom  176 type  1   force =     0.00000000   -0.00000000    0.00000000
     atom  177 type  1   force =     0.00000000   -0.00000000    0.00000000
     atom  178 type  1   force =    -0.00000000    0.00000000    0.00000000
     atom  179 type  1   force =     0.00000000    0.00000000    0.00000000
     atom  180 type  1   force =    -0.00000000    0.00000000    0.00000000
     atom  181 type  1   force =     0.00000000    0.00000000   -0.00000000
     atom  182 type  1   force =     0.00000000    0.00000000   -0.00000000
     atom  183 type  1   force =    -0.00000000    0.00000000   -0.00000000
     atom  184 type  1   force =    -0.00000000    0.00000000   -0.00000000
     atom  185 type  1   force =    -0.00000000    0.00000000    0.00000000
     atom  186 type  1   force =    -0.00000000    0.00000000    0.00000000
     atom  187 type  1   force =    -0.00000000    0.00000000    0.00000000
     atom  188 type  1   force =    -0.00000000    0.00000000    0.00000000
     atom  189 type  1   force =    -0.00000000    0.00000000    0.00000000
     atom  190 type  1   force =    -0.00000000    0.00000000   -0.00000000
     atom  191 type  1   force =     0.00000000    0.00000000   -0.00000000
     atom  192 type  1   force =    -0.00000000    0.00000000   -0.00000000
     atom  193 type  1   force =    -0.00000000    0.00000000   -0.00000000
     atom  194 type  1   force =    -0.00000000    0.00000000   -0.00000000
     atom  195 type  1   force =    -0.00000000   -0.00000000   -0.00000000
     atom  196 type  1   force =    -0.00000000   -0.00000000    0.00000000
     atom  197 type  1   force =    -0.00000000    0.00000000    0.00000000
     atom  198 type  1   force =    -0.00000000    0.00000000   -0.00000000
     atom  199 type  1   force =    -0.00000000    0.00000000   -0.00000000
     atom  200 type  1   force =    -0.00000000    0.00000000   -0.00000000
     atom  201 type  1   force =    -0.00000000    0.00000000   -0.00000000
     atom  202 type  1   force =    -0.00000000    0.00000000   -0.00000000
     atom  203 type  1   force =    -0.00000000    0.00000000   -0.00000000
     atom  204 type  1   force =    -0.00000000    0.00000000    0.00000000
     atom  205 type  1   force =    -0.00000000   -0.00000000    0.00000000
     atom  206 type  1   force =    -0.00000000   -0.00000000    0.00000000
     atom  207 type  1   force =    -0.00000000   -0.00000000   -0.00000000
     atom  208 type  1   force =    -0.00000000   -0.00000000   -0.00000000
     atom  209 type  1   force =    -0.00000000    0.00000000   -0.00000000
     atom  210 type  1   force =    -0.00000000    0.00000000   -0.00000000
     atom  211 type  1   force =     0.00000000    0.00000000   -0.00000000
     atom  212 type  1   force =     0.00000000    0.00000000   -0.00000000
     atom  213 type  1   force =    -0.00000000    0.00000000    0.00000000
     atom  214 type  1   force =     0.00000000   -0.00000000   -0.00000000
     atom  215 type  1   force =    -0.00000000   -0.00000000   -0.00000000
     atom  216 type  1   force =    -0.00000000   -0.00000000   -0.00000000
     atom  217 type  1   force =    -0.00000000   -0.00000000   -0.00000000
     atom  218 type  1   force =    -0.00000000   -0.00000000   -0.00000000
     atom  219 type  1   force =    -0.00000000    0.00000000   -0.00000000
     atom  220 type  1   force =    -0.00000000    0.00000000   -0.00000000
     atom  221 type  1   force =     0.00000000    0.00000000   -0.00000000
     atom  222 type  1   force =     0.00000000    0.00000000   -0.00000000
     atom  223 type  1   force =     0.00000000    0.00000000   -0.00000000
     atom  224 type  1   force =     0.00000000    0.00000000   -0.00000000
     atom  225 type  1   force =     0.00000000   -0.00000000    0.00000000
     atom  226 type  1   force =    -0.00000000    0.00000000    0.00000000
     atom  227 type  1   force =    -0.00000000    0.00000000    0.00000000
     atom  228 type  1   force =    -0.00000000    0.00000000    0.00000000
     atom  229 type  1   force =    -0.00000000    0.00000000    0.00000000
     atom  230 type  1   force =     0.00000000    0.00000000    0.00000000
     atom  231 type  1   force =     0.00000000    0.00000000   -0.00000000
     atom  232 type  1   force =     0.00000000    0.00000000   -0.00000000
     atom  233 type  1   force =     0.00000000    0.00000000   -0.00000000
     atom  234 type  1   force =     0.00000000    0.00000000    0.00000000
     atom  235 type  1   force =     0.00000000    0.00000000    0.00000000
     atom  236 type  1   force =    -0.00000000    0.00000000    0.00000000
     atom  237 type  1   force =    -0.00000000    0.00000000    0.00000000
     atom  238 type  1   force =    -0.00000000    0.00000000    0.00000000
     atom  239 type  1   force =    -0.00000000    0.00000000    0.00000000
     atom  240 type  1   force =    -0.00000000    0.00000000   -0.00000000
     atom  241 type  1   force =    -0.00000000    0.00000000   -0.00000000
     atom  242 type  1   force =    -0.00000000    0.00000000   -0.00000000
     atom  243 type  1   force =    -0.00000000    0.00000000   -0.00000000
     atom  244 type  1   force =    -0.00000000   -0.00000000   -0.00000000
     atom  245 type  1   force =    -0.00000000    0.00000000    0.00000000
     atom  246 type  1   force =    -0.00000000   -0.00000000    0.00000000
     atom  247 type  1   force =    -0.00000000   -0.00000000    0.00000000
     atom  248 type  1   force =    -0.00000000   -0.00000000    0.00000000
     atom  249 type  1   force =    -0.00000000    0.00000000   -0.00000000
     atom  250 type  1   force =    -0.00000000    0.00000000   -0.00000000

     Total force =     0.007375     Total SCF correction =     0.000000


     Computing stress (Cartesian axis) and pressure

          total   stress  (Ry/bohr**3)                   (kbar)     P=        2.61
   0.00001775   0.00000017  -0.00000017            2.61        0.03       -0.03
   0.00000017   0.00001775  -0.00000000            0.03        2.61       -0.00
  -0.00000017  -0.00000000   0.00001775           -0.03       -0.00        2.61

     kinetic stress (kbar)   1857.09     -0.02      0.02
                               -0.02   1857.09     -0.00
                                0.02     -0.00   1857.09

     local   stress (kbar)    844.09     -0.17      0.17
                               -0.17    844.09      0.00
                                0.17      0.00    844.09

     nonloc. stress (kbar)    765.62     -0.01      0.01
                               -0.01    765.62      0.00
                                0.01      0.00    765.62

     hartree stress (kbar)    184.45      0.03     -0.03
                                0.03    184.45      0.00
                               -0.03      0.00    184.45

     exc-cor stress (kbar)   2966.46      0.00     -0.00
                                0.00   2966.46     -0.00
                               -0.00     -0.00   2966.46

     corecor stress (kbar)  -4080.20     -0.01      0.01
                               -0.01  -4080.20      0.00
                                0.01      0.00  -4080.20

     ewald   stress (kbar)  -2534.92      0.20     -0.20
                                0.20  -2534.92     -0.00
                               -0.20     -0.00  -2534.92

     hubbard stress (kbar)      0.00      0.00      0.00
                                0.00      0.00      0.00
                                0.00      0.00      0.00

     DFT-D   stress (kbar)      0.00      0.00      0.00
                                0.00      0.00      0.00
                                0.00      0.00      0.00

     XDM     stress (kbar)      0.00      0.00      0.00
                                0.00      0.00      0.00
                                0.00      0.00      0.00

     dft-nl  stress (kbar)      0.00      0.00      0.00
                                0.00      0.00      0.00
                                0.00      0.00      0.00

     TS-vdW  stress (kbar)      0.00      0.00      0.00
                                0.00      0.00      0.00
                                0.00      0.00      0.00



     Writing output data file ./ge.save/
 
     init_run     :     23.49s CPU     24.43s WALL (       1 calls)
     electrons    :   1507.59s CPU   1554.08s WALL (       1 calls)
     forces       :      7.02s CPU      7.46s WALL (       1 calls)
     stress       :    126.55s CPU    127.93s WALL (       1 calls)

     Called by init_run:
     wfcinit      :     21.65s CPU     22.39s WALL (       1 calls)
     wfcinit:atom :      0.06s CPU      0.09s WALL (       1 calls)
     wfcinit:wfcr :     21.20s CPU     21.85s WALL (       1 calls)
     potinit      :      0.79s CPU      0.83s WALL (       1 calls)
     hinit0       :      0.35s CPU      0.38s WALL (       1 calls)

     Called by electrons:
     c_bands      :   1218.93s CPU   1251.42s WALL (      38 calls)
     sum_band     :    249.77s CPU    258.88s WALL (      38 calls)
     v_of_rho     :     12.26s CPU     13.14s WALL (      38 calls)
     v_h          :      1.26s CPU      1.34s WALL (      38 calls)
     v_xc         :     11.59s CPU     12.41s WALL (      40 calls)
     newd         :      9.25s CPU     12.86s WALL (      38 calls)
     PAW_pot      :     15.15s CPU     15.21s WALL (      38 calls)
     mix_rho      :      2.71s CPU      2.92s WALL (      38 calls)

     Called by c_bands:
     init_us_2    :      9.10s CPU      9.27s WALL (      77 calls)
     regterg      :   1196.12s CPU   1228.44s WALL (      38 calls)

     Called by sum_band:
     sum_band:wei :      0.02s CPU      0.03s WALL (      38 calls)
     sum_band:loo :    239.12s CPU    245.07s WALL (      38 calls)
     sum_band:buf :      0.00s CPU      0.00s WALL (      38 calls)
     sum_band:ini :      4.50s CPU      4.56s WALL (      38 calls)
     sum_band:cal :     37.82s CPU     38.13s WALL (      38 calls)
     sum_band:bec :      0.15s CPU      0.15s WALL (      38 calls)
     addusdens    :      8.09s CPU     11.05s WALL (      38 calls)
     addusd:skk   :      2.45s CPU      4.94s WALL (      38 calls)
     addusd:dgemm :      4.33s CPU      4.71s WALL (      38 calls)
     addusd:qvan2 :      1.00s CPU      1.01s WALL (      38 calls)

     Called by *egterg:
     rdiaghg      :     49.33s CPU     49.60s WALL (     130 calls)
     regterg:over :     59.60s CPU     60.06s WALL (      93 calls)
     regterg:upda :     34.12s CPU     34.36s WALL (      93 calls)
     regterg:last :     61.74s CPU     62.24s WALL (      59 calls)
     h_psi        :    885.55s CPU    911.32s WALL (     132 calls)
     s_psi        :     88.44s CPU     89.40s WALL (     132 calls)
     g_psi        :      1.61s CPU      1.63s WALL (      93 calls)

     Called by h_psi:
     h_psi:calbec :     89.56s CPU     90.41s WALL (     132 calls)
     vloc_psi     :    703.97s CPU    728.15s WALL (     132 calls)
     add_vuspsi   :     88.28s CPU     88.95s WALL (     132 calls)

     General routines
     calbec       :    132.33s CPU    133.53s WALL (     175 calls)
     fft          :      9.32s CPU     10.08s WALL (     363 calls)
     ffts         :      0.91s CPU      0.97s WALL (      38 calls)
     fftw         :    710.68s CPU    737.94s WALL (   63534 calls)
 
     Parallel routines
     fft_scatt_xy :    185.52s CPU    187.67s WALL (   63935 calls)
     fft_scatt_yz :    126.76s CPU    146.14s WALL (   63935 calls)

     PAW routines
     PAW_pot      :     15.15s CPU     15.21s WALL (      38 calls)
     PAW_symme    :      0.03s CPU      0.03s WALL (      76 calls)
 
     PWSCF        :  27m46.23s CPU  28m38.26s WALL

 
   This run was terminated on:  10:45: 0  16Oct2022            

=------------------------------------------------------------------------------=
   JOB DONE.
=------------------------------------------------------------------------------=
