
     Program PHONON v.6.5 starts on  4Feb2022 at 14: 0:32 

     This program is part of the open-source Quantum ESPRESSO suite
     for quantum simulation of materials; please cite
         "P. Giannozzi et al., J. Phys.:Condens. Matter 21 395502 (2009);
         "P. Giannozzi et al., J. Phys.:Condens. Matter 29 465901 (2017);
          URL http://www.quantum-espresso.org", 
     in publications or presentations arising from this work. More details at
     http://www.quantum-espresso.org/quote

     Parallel version (MPI), running on   128 processors

     MPI processes distributed on     2 nodes
     K-points division:     npool     =     128

     Reading xml data from directory:

     ./temp/Ge.save/

     IMPORTANT: XC functional enforced from input :
     Exchange-correlation= PBESOL
                           (   1   4  10   8   0   0   0)
     Any further DFT definition will be discarded
     Please, verify this is what you really want


     G-vector sticks info
     --------------------
     sticks:   dense  smooth     PW     G-vecs:    dense   smooth      PW
     Sum         805     805    253                14841    14841    2685

     Reading collected, re-writing distributed wavefunctions


     Dynamical matrices for ( 6, 6, 6)  uniform grid of q-points
     (  16 q-points):
       N         xq(1)         xq(2)         xq(3) 
       1   0.000000000   0.000000000   0.000000000
       2  -0.166666667   0.166666667  -0.166666667
       3  -0.333333333   0.333333333  -0.333333333
       4   0.500000000  -0.500000000   0.500000000
       5   0.000000000   0.333333333   0.000000000
       6  -0.166666667   0.500000000  -0.166666667
       7   0.666666667  -0.333333333   0.666666667
       8   0.500000000  -0.166666667   0.500000000
       9   0.333333333   0.000000000   0.333333333
      10   0.000000000   0.666666667   0.000000000
      11   0.833333333  -0.166666667   0.833333333
      12   0.666666667  -0.000000000   0.666666667
      13   0.000000000  -1.000000000   0.000000000
      14   0.666666667  -0.333333333   1.000000000
      15   0.500000000  -0.166666667   0.833333333
      16  -0.333333333  -1.000000000   0.000000000

     Calculation of q =    0.0000000   0.0000000   0.0000000

     Phonons of Ge                                                              

     bravais-lattice index     =            2
     lattice parameter (alat)  =      10.7450  a.u.
     unit-cell volume          =     310.1411 (a.u.)^3
     number of atoms/cell      =            2
     number of atomic types    =            1
     kinetic-energy cut-off    =      50.0000  Ry
     charge density cut-off    =     200.0000  Ry
     convergence threshold     =      1.0E-14
     beta                      =       0.7000
     number of iterations used =            4
     Exchange-correlation= PBESOL
                           (   1   4  10   8   0   0   0)


     celldm(1)=   10.74500  celldm(2)=    0.00000  celldm(3)=    0.00000
     celldm(4)=    0.00000  celldm(5)=    0.00000  celldm(6)=    0.00000

     crystal axes: (cart. coord. in units of alat)
               a(1) = ( -0.5000  0.0000  0.5000 )  
               a(2) = (  0.0000  0.5000  0.5000 )  
               a(3) = ( -0.5000  0.5000  0.0000 )  

     reciprocal axes: (cart. coord. in units 2 pi/alat)
               b(1) = ( -1.0000 -1.0000  1.0000 )  
               b(2) = (  1.0000  1.0000  1.0000 )  
               b(3) = ( -1.0000  1.0000 -1.0000 )  


     Atoms inside the unit cell: 

     Cartesian axes

     site n.  atom      mass           positions (alat units)
        1     Ge  72.6400   tau(    1) = (    0.00000    0.00000    0.00000  )
        2     Ge  72.6400   tau(    2) = (   -0.25000    0.25000    0.25000  )

     Computing dynamical matrix for 
                    q = (   0.0000000   0.0000000   0.0000000 )

     49 Sym.Ops. (with q -> -q+G )


     G cutoff =  584.9020  (  14841 G-vectors)     FFT grid: ( 36, 36, 36)
     number of k points=   570

     PseudoPot. # 1 for Ge read from file:
     ./Ge.pbesol-n-kjpaw_psl.1.0.0.UPF
     MD5 check sum: ba6169c2b85c6e6c9360c21392c70c8c
     Pseudo is Projector augmented-wave + core cor, Zval =  4.0
     Generated using "atomic" code by A. Dal Corso v.6.3
     Shape of augmentation charge: PSQ
     Using radial grid of 1207 points,  4 beta functions with: 
                l(1) =   0
                l(2) =   0
                l(3) =   1
                l(4) =   1
     Q(r) pseudized with 0 coefficients 


     Mode symmetry, O_h (m-3m)  point group:


     Electric field:
     Dielectric constant
     Born effective charges in two ways 


     Atomic displacements:
     There are   2 irreducible representations

     Representation     1      3 modes -T_2g G_25' G_5+  To be done

     Representation     2      3 modes -T_1u G_15  G_4-  To be done



     Alpha used in Ewald sum =   2.1000
     PHONON       :      3.11s CPU      9.85s WALL


     Electric Fields Calculation

      iter #   1 total cpu time :    12.9 secs   av.it.:   8.2
      thresh= 1.000E-02 alpha_mix =  0.700 |ddv_scf|^2 =  1.251E-07

      iter #   2 total cpu time :    14.5 secs   av.it.:  12.5
      thresh= 3.537E-05 alpha_mix =  0.700 |ddv_scf|^2 =  5.224E-09

      iter #   3 total cpu time :    15.9 secs   av.it.:  11.9
      thresh= 7.228E-06 alpha_mix =  0.700 |ddv_scf|^2 =  3.275E-10

      iter #   4 total cpu time :    17.9 secs   av.it.:  12.2
      thresh= 1.810E-06 alpha_mix =  0.700 |ddv_scf|^2 =  7.436E-12

      iter #   5 total cpu time :    19.4 secs   av.it.:  11.8
      thresh= 2.727E-07 alpha_mix =  0.700 |ddv_scf|^2 =  1.514E-14

      iter #   6 total cpu time :    21.0 secs   av.it.:  10.9
      thresh= 1.230E-08 alpha_mix =  0.700 |ddv_scf|^2 =  8.828E-17

     End of electric fields calculation

          Dielectric constant in cartesian axis 

          (      22.556517721      -0.000000000       0.000000000 )
          (      -0.000000000      22.556517721       0.000000000 )
          (       0.000000000       0.000000000      22.556517721 )

          Effective charges (d Force / dE) in cartesian axis

           atom      1   Ge 
      Ex  (       -0.00015        0.00000        0.00000 )
      Ey  (        0.00000       -0.00015       -0.00000 )
      Ez  (        0.00000       -0.00000       -0.00015 )
           atom      2   Ge 
      Ex  (       -0.00015        0.00000       -0.00000 )
      Ey  (        0.00000       -0.00015       -0.00000 )
      Ez  (       -0.00000       -0.00000       -0.00015 )


     Representation #  1 modes #   1  2  3

     Self-consistent Calculation

      iter #   1 total cpu time :    25.8 secs   av.it.:   4.8
      thresh= 1.000E-02 alpha_mix =  0.700 |ddv_scf|^2 =  1.182E-08

      iter #   2 total cpu time :    27.7 secs   av.it.:  10.4
      thresh= 1.087E-05 alpha_mix =  0.700 |ddv_scf|^2 =  4.729E-10

      iter #   3 total cpu time :    29.4 secs   av.it.:  10.5
      thresh= 2.175E-06 alpha_mix =  0.700 |ddv_scf|^2 =  3.232E-11

      iter #   4 total cpu time :    31.4 secs   av.it.:  10.2
      thresh= 5.685E-07 alpha_mix =  0.700 |ddv_scf|^2 =  1.554E-12

      iter #   5 total cpu time :    33.1 secs   av.it.:   9.9
      thresh= 1.247E-07 alpha_mix =  0.700 |ddv_scf|^2 =  4.835E-15

     End of self-consistent calculation

     Convergence has been achieved 


     Representation #  2 modes #   4  5  6

     Self-consistent Calculation

      iter #   1 total cpu time :    36.3 secs   av.it.:   5.1
      thresh= 1.000E-02 alpha_mix =  0.700 |ddv_scf|^2 =  1.253E-08

      iter #   2 total cpu time :    37.9 secs   av.it.:  10.6
      thresh= 1.119E-05 alpha_mix =  0.700 |ddv_scf|^2 =  5.455E-10

      iter #   3 total cpu time :    39.6 secs   av.it.:  10.8
      thresh= 2.336E-06 alpha_mix =  0.700 |ddv_scf|^2 =  2.815E-11

      iter #   4 total cpu time :    43.2 secs   av.it.:  10.2
      thresh= 5.306E-07 alpha_mix =  0.700 |ddv_scf|^2 =  1.510E-12

      iter #   5 total cpu time :    45.8 secs   av.it.:   9.8
      thresh= 1.229E-07 alpha_mix =  0.700 |ddv_scf|^2 =  2.890E-15

     End of self-consistent calculation

     Convergence has been achieved 

     Number of q in the star =    1
     List of q in the star:
          1   0.000000000   0.000000000   0.000000000

          Dielectric constant in cartesian axis 

          (      22.556517721      -0.000000000       0.000000000 )
          (      -0.000000000      22.556517721       0.000000000 )
          (       0.000000000       0.000000000      22.556517721 )

          Effective charges (d Force / dE) in cartesian axis

           atom      1   Ge 
      Ex  (       -0.00015        0.00000        0.00000 )
      Ey  (        0.00000       -0.00015       -0.00000 )
      Ez  (        0.00000       -0.00000       -0.00015 )
           atom      2   Ge 
      Ex  (       -0.00015        0.00000       -0.00000 )
      Ey  (        0.00000       -0.00015       -0.00000 )
      Ez  (       -0.00000       -0.00000       -0.00015 )

          Effective charges (d P / du) in cartesian axis 

           atom      1   Ge 
      Px  (       -0.00039       -0.00000        0.00000 )
      Py  (       -0.00000       -0.00039        0.00000 )
      Pz  (        0.00000        0.00000       -0.00039 )
           atom      2   Ge 
      Px  (       -0.00039       -0.00000        0.00000 )
      Py  (       -0.00000       -0.00039        0.00000 )
      Pz  (       -0.00000        0.00000       -0.00039 )

     Diagonalizing the dynamical matrix

     q = (    0.000000000   0.000000000   0.000000000 ) 

 **************************************************************************
     freq (    1) =      -0.123244 [THz] =      -4.110993 [cm-1]
     freq (    2) =      -0.123244 [THz] =      -4.110993 [cm-1]
     freq (    3) =      -0.123244 [THz] =      -4.110993 [cm-1]
     freq (    4) =       8.773799 [THz] =     292.662446 [cm-1]
     freq (    5) =       8.773799 [THz] =     292.662446 [cm-1]
     freq (    6) =       8.773799 [THz] =     292.662446 [cm-1]
 **************************************************************************

     Mode symmetry, O_h (m-3m)  point group:

     freq (  1 -  3) =         -4.1  [cm-1]   --> T_1u G_15  G_4- I  
     freq (  4 -  6) =        292.7  [cm-1]   --> T_2g G_25' G_5+ R  

     Calculation of q =   -0.1666667   0.1666667  -0.1666667

     Subspace diagonalization in iterative solution of the eigenvalue problem:
     a serial algorithm will be used


     G-vector sticks info
     --------------------
     sticks:   dense  smooth     PW     G-vecs:    dense   smooth      PW
     Sum         805     805    253                14841    14841    2741


     Title: 
     Phonons of Ge                                                              


     bravais-lattice index     =            2
     lattice parameter (alat)  =      10.7450  a.u.
     unit-cell volume          =     310.1411 (a.u.)^3
     number of atoms/cell      =            2
     number of atomic types    =            1
     number of electrons       =         8.00
     number of Kohn-Sham states=           30
     kinetic-energy cutoff     =      50.0000  Ry
     charge density cutoff     =     200.0000  Ry
     Exchange-correlation= PBESOL
                           (   1   4  10   8   0   0   0)

     celldm(1)=  10.745000  celldm(2)=   0.000000  celldm(3)=   0.000000
     celldm(4)=   0.000000  celldm(5)=   0.000000  celldm(6)=   0.000000

     crystal axes: (cart. coord. in units of alat)
               a(1) = (  -0.500000   0.000000   0.500000 )  
               a(2) = (   0.000000   0.500000   0.500000 )  
               a(3) = (  -0.500000   0.500000   0.000000 )  

     reciprocal axes: (cart. coord. in units 2 pi/alat)
               b(1) = ( -1.000000 -1.000000  1.000000 )  
               b(2) = (  1.000000  1.000000  1.000000 )  
               b(3) = ( -1.000000  1.000000 -1.000000 )  


     PseudoPot. # 1 for Ge read from file:
     ./Ge.pbesol-n-kjpaw_psl.1.0.0.UPF
     MD5 check sum: ba6169c2b85c6e6c9360c21392c70c8c
     Pseudo is Projector augmented-wave + core cor, Zval =  4.0
     Generated using "atomic" code by A. Dal Corso v.6.3
     Shape of augmentation charge: PSQ
     Using radial grid of 1207 points,  4 beta functions with: 
                l(1) =   0
                l(2) =   0
                l(3) =   1
                l(4) =   1
     Q(r) pseudized with 0 coefficients 


     atomic species   valence    mass     pseudopotential
        Ge             4.00    72.64000     Ge( 1.00)

     48 Sym. Ops., with inversion, found



   Cartesian axes

     site n.     atom                  positions (alat units)
         1           Ge  tau(   1) = (   0.0000000   0.0000000   0.0000000  )
         2           Ge  tau(   2) = (  -0.2500000   0.2500000   0.2500000  )

     number of k points=  8436

     Number of k-points >= 100: set verbosity='high' to print them.

     Dense  grid:    14841 G-vectors     FFT dimensions: (  36,  36,  36)

     Estimated max dynamical RAM per process >      17.87 MB

     Estimated total dynamical RAM >       2.23 GB

     The potential is recalculated from file :
     ./temp/_ph0/Ge.q_2/Ge.save/charge-density

     Starting wfcs are    8 atomic +   22 random wfcs
     Checking if some PAW data can be deallocated... 

     Band Structure Calculation
     Davidson diagonalization with overlap

     ethr =  1.25E-10,  avg # of iterations = 21.5

     total cpu time spent up to now is       61.1 secs

     End of band structure calculation

     Number of k-points >= 100: set verbosity='high' to print the bands.

     highest occupied, lowest unoccupied level (ev):     5.4893    5.6179

     Writing output data file ./temp/_ph0/Ge.q_2/Ge.save/

     Phonons of Ge                                                              

     bravais-lattice index     =            2
     lattice parameter (alat)  =      10.7450  a.u.
     unit-cell volume          =     310.1411 (a.u.)^3
     number of atoms/cell      =            2
     number of atomic types    =            1
     kinetic-energy cut-off    =      50.0000  Ry
     charge density cut-off    =     200.0000  Ry
     convergence threshold     =      1.0E-14
     beta                      =       0.7000
     number of iterations used =            4
     Exchange-correlation= PBESOL
                           (   1   4  10   8   0   0   0)


     celldm(1)=   10.74500  celldm(2)=    0.00000  celldm(3)=    0.00000
     celldm(4)=    0.00000  celldm(5)=    0.00000  celldm(6)=    0.00000

     crystal axes: (cart. coord. in units of alat)
               a(1) = ( -0.5000  0.0000  0.5000 )  
               a(2) = (  0.0000  0.5000  0.5000 )  
               a(3) = ( -0.5000  0.5000  0.0000 )  

     reciprocal axes: (cart. coord. in units 2 pi/alat)
               b(1) = ( -1.0000 -1.0000  1.0000 )  
               b(2) = (  1.0000  1.0000  1.0000 )  
               b(3) = ( -1.0000  1.0000 -1.0000 )  


     Atoms inside the unit cell: 

     Cartesian axes

     site n.  atom      mass           positions (alat units)
        1     Ge  72.6400   tau(    1) = (    0.00000    0.00000    0.00000  )
        2     Ge  72.6400   tau(    2) = (   -0.25000    0.25000    0.25000  )

     Computing dynamical matrix for 
                    q = (  -0.1666667   0.1666667  -0.1666667 )

      6 Sym.Ops. (no q -> -q+G )


     G cutoff =  584.9020  (  14841 G-vectors)     FFT grid: ( 36, 36, 36)
     number of k points=  8436

     PseudoPot. # 1 for Ge read from file:
     ./Ge.pbesol-n-kjpaw_psl.1.0.0.UPF
     MD5 check sum: ba6169c2b85c6e6c9360c21392c70c8c
     Pseudo is Projector augmented-wave + core cor, Zval =  4.0
     Generated using "atomic" code by A. Dal Corso v.6.3
     Shape of augmentation charge: PSQ
     Using radial grid of 1207 points,  4 beta functions with: 
                l(1) =   0
                l(2) =   0
                l(3) =   1
                l(4) =   1
     Q(r) pseudized with 0 coefficients 


     Mode symmetry, C_3v (3m)   point group:


     Atomic displacements:
     There are   4 irreducible representations

     Representation     1      1 modes -A_1  L_1  To be done

     Representation     2      1 modes -A_1  L_1  To be done

     Representation     3      2 modes -E    L_3  To be done

     Representation     4      2 modes -E    L_3  To be done



     Alpha used in Ewald sum =   2.1000
     PHONON       :   1m27.94s CPU   1m54.38s WALL



     Representation #  1 mode #   1

     Self-consistent Calculation

      iter #   1 total cpu time :   117.3 secs   av.it.:   5.8
      thresh= 1.000E-02 alpha_mix =  0.700 |ddv_scf|^2 =  2.236E-03

      iter #   2 total cpu time :   119.5 secs   av.it.:   8.1
      thresh= 4.728E-03 alpha_mix =  0.700 |ddv_scf|^2 =  1.002E-01

      iter #   3 total cpu time :   122.7 secs   av.it.:   7.1
      thresh= 1.000E-02 alpha_mix =  0.700 |ddv_scf|^2 =  3.427E-07

      iter #   4 total cpu time :   125.6 secs   av.it.:   8.5
      thresh= 5.854E-05 alpha_mix =  0.700 |ddv_scf|^2 =  7.666E-09

      iter #   5 total cpu time :   128.1 secs   av.it.:   9.2
      thresh= 8.755E-06 alpha_mix =  0.700 |ddv_scf|^2 =  7.723E-09

      iter #   6 total cpu time :   132.2 secs   av.it.:   6.8
      thresh= 8.788E-06 alpha_mix =  0.700 |ddv_scf|^2 =  7.579E-09

      iter #   7 total cpu time :   134.1 secs   av.it.:   7.5
      thresh= 8.706E-06 alpha_mix =  0.700 |ddv_scf|^2 =  4.015E-11

      iter #   8 total cpu time :   136.3 secs   av.it.:   8.3
      thresh= 6.337E-07 alpha_mix =  0.700 |ddv_scf|^2 =  6.455E-12

      iter #   9 total cpu time :   138.3 secs   av.it.:   7.7
      thresh= 2.541E-07 alpha_mix =  0.700 |ddv_scf|^2 =  4.168E-13

      iter #  10 total cpu time :   140.5 secs   av.it.:   8.0
      thresh= 6.456E-08 alpha_mix =  0.700 |ddv_scf|^2 =  1.186E-14

      iter #  11 total cpu time :   142.6 secs   av.it.:   8.2
      thresh= 1.089E-08 alpha_mix =  0.700 |ddv_scf|^2 =  1.811E-15

     End of self-consistent calculation

     Convergence has been achieved 


     Representation #  2 mode #   2

     Self-consistent Calculation

      iter #   1 total cpu time :   146.7 secs   av.it.:   5.8
      thresh= 1.000E-02 alpha_mix =  0.700 |ddv_scf|^2 =  2.236E-03

      iter #   2 total cpu time :   148.8 secs   av.it.:   8.1
      thresh= 4.728E-03 alpha_mix =  0.700 |ddv_scf|^2 =  1.002E-01

      iter #   3 total cpu time :   150.7 secs   av.it.:   7.1
      thresh= 1.000E-02 alpha_mix =  0.700 |ddv_scf|^2 =  3.427E-07

      iter #   4 total cpu time :   153.9 secs   av.it.:   8.5
      thresh= 5.854E-05 alpha_mix =  0.700 |ddv_scf|^2 =  7.666E-09

      iter #   5 total cpu time :   156.1 secs   av.it.:   9.2
      thresh= 8.755E-06 alpha_mix =  0.700 |ddv_scf|^2 =  7.723E-09

      iter #   6 total cpu time :   158.0 secs   av.it.:   6.8
      thresh= 8.788E-06 alpha_mix =  0.700 |ddv_scf|^2 =  7.579E-09

      iter #   7 total cpu time :   160.5 secs   av.it.:   7.5
      thresh= 8.706E-06 alpha_mix =  0.700 |ddv_scf|^2 =  4.015E-11

      iter #   8 total cpu time :   162.7 secs   av.it.:   8.3
      thresh= 6.337E-07 alpha_mix =  0.700 |ddv_scf|^2 =  6.455E-12

      iter #   9 total cpu time :   165.6 secs   av.it.:   7.7
      thresh= 2.541E-07 alpha_mix =  0.700 |ddv_scf|^2 =  4.168E-13

      iter #  10 total cpu time :   167.9 secs   av.it.:   8.0
      thresh= 6.456E-08 alpha_mix =  0.700 |ddv_scf|^2 =  1.186E-14

      iter #  11 total cpu time :   170.7 secs   av.it.:   8.2
      thresh= 1.089E-08 alpha_mix =  0.700 |ddv_scf|^2 =  1.811E-15

     End of self-consistent calculation

     Convergence has been achieved 


     Representation #  3 modes #   3  4

     Self-consistent Calculation

      iter #   1 total cpu time :   179.2 secs   av.it.:   5.1
      thresh= 1.000E-02 alpha_mix =  0.700 |ddv_scf|^2 =  3.270E-08

      iter #   2 total cpu time :   185.6 secs   av.it.:  10.4
      thresh= 1.808E-05 alpha_mix =  0.700 |ddv_scf|^2 =  1.358E-09

      iter #   3 total cpu time :   191.6 secs   av.it.:  10.5
      thresh= 3.686E-06 alpha_mix =  0.700 |ddv_scf|^2 =  1.143E-10

      iter #   4 total cpu time :   197.6 secs   av.it.:  10.3
      thresh= 1.069E-06 alpha_mix =  0.700 |ddv_scf|^2 =  4.965E-12

      iter #   5 total cpu time :   202.9 secs   av.it.:   9.9
      thresh= 2.228E-07 alpha_mix =  0.700 |ddv_scf|^2 =  1.501E-14

      iter #   6 total cpu time :   211.1 secs   av.it.:  10.1
      thresh= 1.225E-08 alpha_mix =  0.700 |ddv_scf|^2 =  7.735E-16

     End of self-consistent calculation

     Convergence has been achieved 


     Representation #  4 modes #   5  6

     Self-consistent Calculation

      iter #   1 total cpu time :   216.7 secs   av.it.:   5.1
      thresh= 1.000E-02 alpha_mix =  0.700 |ddv_scf|^2 =  3.270E-08

      iter #   2 total cpu time :   222.8 secs   av.it.:  10.4
      thresh= 1.808E-05 alpha_mix =  0.700 |ddv_scf|^2 =  1.358E-09

      iter #   3 total cpu time :   229.1 secs   av.it.:  10.4
      thresh= 3.686E-06 alpha_mix =  0.700 |ddv_scf|^2 =  1.142E-10

      iter #   4 total cpu time :   235.8 secs   av.it.:  10.2
      thresh= 1.069E-06 alpha_mix =  0.700 |ddv_scf|^2 =  4.964E-12

      iter #   5 total cpu time :   241.1 secs   av.it.:   9.8
      thresh= 2.228E-07 alpha_mix =  0.700 |ddv_scf|^2 =  1.499E-14

      iter #   6 total cpu time :   245.9 secs   av.it.:  10.1
      thresh= 1.224E-08 alpha_mix =  0.700 |ddv_scf|^2 =  7.744E-16

     End of self-consistent calculation

     Convergence has been achieved 

     Number of q in the star =    8
     List of q in the star:
          1  -0.166666667   0.166666667  -0.166666667
          2   0.166666667   0.166666667   0.166666667
          3  -0.166666667  -0.166666667  -0.166666667
          4   0.166666667  -0.166666667   0.166666667
          5   0.166666667  -0.166666667  -0.166666667
          6   0.166666667   0.166666667  -0.166666667
          7  -0.166666667  -0.166666667   0.166666667
          8  -0.166666667   0.166666667   0.166666667

     Diagonalizing the dynamical matrix

     q = (   -0.166666667   0.166666667  -0.166666667 ) 

 **************************************************************************
     freq (    1) =       1.193952 [THz] =      39.825965 [cm-1]
     freq (    2) =       1.193952 [THz] =      39.825965 [cm-1]
     freq (    3) =       2.656259 [THz] =      88.603252 [cm-1]
     freq (    4) =       8.546818 [THz] =     285.091162 [cm-1]
     freq (    5) =       8.546818 [THz] =     285.091162 [cm-1]
     freq (    6) =       8.573256 [THz] =     285.973042 [cm-1]
 **************************************************************************

     Mode symmetry, C_3v (3m)   point group:

     freq (  1 -  2) =         39.8  [cm-1]   --> E    L_3           
     freq (  3 -  3) =         88.6  [cm-1]   --> A_1  L_1           
     freq (  4 -  5) =        285.1  [cm-1]   --> E    L_3           
     freq (  6 -  6) =        286.0  [cm-1]   --> A_1  L_1           

     Calculation of q =   -0.3333333   0.3333333  -0.3333333

     G-vector sticks info
     --------------------
     sticks:   dense  smooth     PW     G-vecs:    dense   smooth      PW
     Sum         805     805    271                14841    14841    2975


     Title: 
     Phonons of Ge                                                              


     bravais-lattice index     =            2
     lattice parameter (alat)  =      10.7450  a.u.
     unit-cell volume          =     310.1411 (a.u.)^3
     number of atoms/cell      =            2
     number of atomic types    =            1
     number of electrons       =         8.00
     number of Kohn-Sham states=           30
     kinetic-energy cutoff     =      50.0000  Ry
     charge density cutoff     =     200.0000  Ry
     Exchange-correlation= PBESOL
                           (   1   4  10   8   0   0   0)

     celldm(1)=  10.745000  celldm(2)=   0.000000  celldm(3)=   0.000000
     celldm(4)=   0.000000  celldm(5)=   0.000000  celldm(6)=   0.000000

     crystal axes: (cart. coord. in units of alat)
               a(1) = (  -0.500000   0.000000   0.500000 )  
               a(2) = (   0.000000   0.500000   0.500000 )  
               a(3) = (  -0.500000   0.500000   0.000000 )  

     reciprocal axes: (cart. coord. in units 2 pi/alat)
               b(1) = ( -1.000000 -1.000000  1.000000 )  
               b(2) = (  1.000000  1.000000  1.000000 )  
               b(3) = ( -1.000000  1.000000 -1.000000 )  


     PseudoPot. # 1 for Ge read from file:
     ./Ge.pbesol-n-kjpaw_psl.1.0.0.UPF
     MD5 check sum: ba6169c2b85c6e6c9360c21392c70c8c
     Pseudo is Projector augmented-wave + core cor, Zval =  4.0
     Generated using "atomic" code by A. Dal Corso v.6.3
     Shape of augmentation charge: PSQ
     Using radial grid of 1207 points,  4 beta functions with: 
                l(1) =   0
                l(2) =   0
                l(3) =   1
                l(4) =   1
     Q(r) pseudized with 0 coefficients 


     atomic species   valence    mass     pseudopotential
        Ge             4.00    72.64000     Ge( 1.00)

     48 Sym. Ops., with inversion, found



   Cartesian axes

     site n.     atom                  positions (alat units)
         1           Ge  tau(   1) = (   0.0000000   0.0000000   0.0000000  )
         2           Ge  tau(   2) = (  -0.2500000   0.2500000   0.2500000  )

     number of k points=  8436

     Number of k-points >= 100: set verbosity='high' to print them.

     Dense  grid:    14841 G-vectors     FFT dimensions: (  36,  36,  36)

     Estimated max dynamical RAM per process >      17.88 MB

     Estimated total dynamical RAM >       2.23 GB

     The potential is recalculated from file :
     ./temp/_ph0/Ge.q_3/Ge.save/charge-density

     Starting wfcs are    8 atomic +   22 random wfcs
     Checking if some PAW data can be deallocated... 

     Band Structure Calculation
     Davidson diagonalization with overlap

     ethr =  1.25E-10,  avg # of iterations = 21.5

     total cpu time spent up to now is      125.2 secs

     End of band structure calculation

     Number of k-points >= 100: set verbosity='high' to print the bands.

     highest occupied, lowest unoccupied level (ev):     5.4893    5.6179

     Writing output data file ./temp/_ph0/Ge.q_3/Ge.save/

     Phonons of Ge                                                              

     bravais-lattice index     =            2
     lattice parameter (alat)  =      10.7450  a.u.
     unit-cell volume          =     310.1411 (a.u.)^3
     number of atoms/cell      =            2
     number of atomic types    =            1
     kinetic-energy cut-off    =      50.0000  Ry
     charge density cut-off    =     200.0000  Ry
     convergence threshold     =      1.0E-14
     beta                      =       0.7000
     number of iterations used =            4
     Exchange-correlation= PBESOL
                           (   1   4  10   8   0   0   0)


     celldm(1)=   10.74500  celldm(2)=    0.00000  celldm(3)=    0.00000
     celldm(4)=    0.00000  celldm(5)=    0.00000  celldm(6)=    0.00000

     crystal axes: (cart. coord. in units of alat)
               a(1) = ( -0.5000  0.0000  0.5000 )  
               a(2) = (  0.0000  0.5000  0.5000 )  
               a(3) = ( -0.5000  0.5000  0.0000 )  

     reciprocal axes: (cart. coord. in units 2 pi/alat)
               b(1) = ( -1.0000 -1.0000  1.0000 )  
               b(2) = (  1.0000  1.0000  1.0000 )  
               b(3) = ( -1.0000  1.0000 -1.0000 )  


     Atoms inside the unit cell: 

     Cartesian axes

     site n.  atom      mass           positions (alat units)
        1     Ge  72.6400   tau(    1) = (    0.00000    0.00000    0.00000  )
        2     Ge  72.6400   tau(    2) = (   -0.25000    0.25000    0.25000  )

     Computing dynamical matrix for 
                    q = (  -0.3333333   0.3333333  -0.3333333 )

      6 Sym.Ops. (no q -> -q+G )


     G cutoff =  584.9020  (  14841 G-vectors)     FFT grid: ( 36, 36, 36)
     number of k points=  8436

     PseudoPot. # 1 for Ge read from file:
     ./Ge.pbesol-n-kjpaw_psl.1.0.0.UPF
     MD5 check sum: ba6169c2b85c6e6c9360c21392c70c8c
     Pseudo is Projector augmented-wave + core cor, Zval =  4.0
     Generated using "atomic" code by A. Dal Corso v.6.3
     Shape of augmentation charge: PSQ
     Using radial grid of 1207 points,  4 beta functions with: 
                l(1) =   0
                l(2) =   0
                l(3) =   1
                l(4) =   1
     Q(r) pseudized with 0 coefficients 


     Mode symmetry, C_3v (3m)   point group:


     Atomic displacements:
     There are   4 irreducible representations

     Representation     1      1 modes -A_1  L_1  To be done

     Representation     2      1 modes -A_1  L_1  To be done

     Representation     3      2 modes -E    L_3  To be done

     Representation     4      2 modes -E    L_3  To be done



     Alpha used in Ewald sum =   2.1000
     PHONON       :   4m14.19s CPU   5m16.74s WALL



     Representation #  1 mode #   1

     Self-consistent Calculation

      iter #   1 total cpu time :   319.6 secs   av.it.:   5.9
      thresh= 1.000E-02 alpha_mix =  0.700 |ddv_scf|^2 =  1.036E-04

      iter #   2 total cpu time :   323.2 secs   av.it.:   9.0
      thresh= 1.018E-03 alpha_mix =  0.700 |ddv_scf|^2 =  8.300E-04

      iter #   3 total cpu time :   325.6 secs   av.it.:   7.5
      thresh= 2.881E-03 alpha_mix =  0.700 |ddv_scf|^2 =  1.251E-07

      iter #   4 total cpu time :   328.3 secs   av.it.:   9.2
      thresh= 3.537E-05 alpha_mix =  0.700 |ddv_scf|^2 =  6.420E-09

      iter #   5 total cpu time :   330.4 secs   av.it.:   9.1
      thresh= 8.012E-06 alpha_mix =  0.700 |ddv_scf|^2 =  1.117E-10

      iter #   6 total cpu time :   333.3 secs   av.it.:   9.5
      thresh= 1.057E-06 alpha_mix =  0.700 |ddv_scf|^2 =  1.078E-11

      iter #   7 total cpu time :   335.5 secs   av.it.:   9.4
      thresh= 3.283E-07 alpha_mix =  0.700 |ddv_scf|^2 =  1.421E-11

      iter #   8 total cpu time :   338.3 secs   av.it.:   8.2
      thresh= 3.769E-07 alpha_mix =  0.700 |ddv_scf|^2 =  4.566E-12

      iter #   9 total cpu time :   340.3 secs   av.it.:   8.4
      thresh= 2.137E-07 alpha_mix =  0.700 |ddv_scf|^2 =  2.652E-12

      iter #  10 total cpu time :   342.3 secs   av.it.:   7.9
      thresh= 1.629E-07 alpha_mix =  0.700 |ddv_scf|^2 =  1.227E-14

      iter #  11 total cpu time :   345.5 secs   av.it.:   9.0
      thresh= 1.108E-08 alpha_mix =  0.700 |ddv_scf|^2 =  6.872E-16

     End of self-consistent calculation

     Convergence has been achieved 


     Representation #  2 mode #   2

     Self-consistent Calculation

      iter #   1 total cpu time :   350.3 secs   av.it.:   5.9
      thresh= 1.000E-02 alpha_mix =  0.700 |ddv_scf|^2 =  1.036E-04

      iter #   2 total cpu time :   352.7 secs   av.it.:   9.0
      thresh= 1.018E-03 alpha_mix =  0.700 |ddv_scf|^2 =  8.300E-04

      iter #   3 total cpu time :   355.6 secs   av.it.:   7.5
      thresh= 2.881E-03 alpha_mix =  0.700 |ddv_scf|^2 =  1.251E-07

      iter #   4 total cpu time :   358.0 secs   av.it.:   9.2
      thresh= 3.537E-05 alpha_mix =  0.700 |ddv_scf|^2 =  6.420E-09

      iter #   5 total cpu time :   361.1 secs   av.it.:   9.2
      thresh= 8.012E-06 alpha_mix =  0.700 |ddv_scf|^2 =  1.117E-10

      iter #   6 total cpu time :   365.4 secs   av.it.:   9.5
      thresh= 1.057E-06 alpha_mix =  0.700 |ddv_scf|^2 =  1.078E-11

      iter #   7 total cpu time :   368.5 secs   av.it.:   9.4
      thresh= 3.283E-07 alpha_mix =  0.700 |ddv_scf|^2 =  1.421E-11

      iter #   8 total cpu time :   370.9 secs   av.it.:   8.2
      thresh= 3.769E-07 alpha_mix =  0.700 |ddv_scf|^2 =  4.566E-12

      iter #   9 total cpu time :   373.3 secs   av.it.:   8.4
      thresh= 2.137E-07 alpha_mix =  0.700 |ddv_scf|^2 =  2.652E-12

      iter #  10 total cpu time :   375.7 secs   av.it.:   7.9
      thresh= 1.629E-07 alpha_mix =  0.700 |ddv_scf|^2 =  1.227E-14

      iter #  11 total cpu time :   379.1 secs   av.it.:   9.0
      thresh= 1.108E-08 alpha_mix =  0.700 |ddv_scf|^2 =  6.872E-16

     End of self-consistent calculation

     Convergence has been achieved 


     Representation #  3 modes #   3  4

     Self-consistent Calculation

      iter #   1 total cpu time :   387.3 secs   av.it.:   5.1
      thresh= 1.000E-02 alpha_mix =  0.700 |ddv_scf|^2 =  4.187E-08

      iter #   2 total cpu time :   393.8 secs   av.it.:  10.4
      thresh= 2.046E-05 alpha_mix =  0.700 |ddv_scf|^2 =  1.861E-09

      iter #   3 total cpu time :   399.1 secs   av.it.:  10.4
      thresh= 4.313E-06 alpha_mix =  0.700 |ddv_scf|^2 =  1.709E-10

      iter #   4 total cpu time :   404.6 secs   av.it.:  10.3
      thresh= 1.307E-06 alpha_mix =  0.700 |ddv_scf|^2 =  5.803E-12

      iter #   5 total cpu time :   410.8 secs   av.it.:   9.9
      thresh= 2.409E-07 alpha_mix =  0.700 |ddv_scf|^2 =  1.742E-14

      iter #   6 total cpu time :   417.9 secs   av.it.:  10.0
      thresh= 1.320E-08 alpha_mix =  0.700 |ddv_scf|^2 =  4.537E-16

     End of self-consistent calculation

     Convergence has been achieved 


     Representation #  4 modes #   5  6

     Self-consistent Calculation

      iter #   1 total cpu time :   427.8 secs   av.it.:   5.1
      thresh= 1.000E-02 alpha_mix =  0.700 |ddv_scf|^2 =  4.185E-08

      iter #   2 total cpu time :   434.2 secs   av.it.:  10.4
      thresh= 2.046E-05 alpha_mix =  0.700 |ddv_scf|^2 =  1.857E-09

      iter #   3 total cpu time :   440.9 secs   av.it.:  10.4
      thresh= 4.310E-06 alpha_mix =  0.700 |ddv_scf|^2 =  1.706E-10

      iter #   4 total cpu time :   446.1 secs   av.it.:  10.3
      thresh= 1.306E-06 alpha_mix =  0.700 |ddv_scf|^2 =  5.796E-12

      iter #   5 total cpu time :   450.9 secs   av.it.:   9.8
      thresh= 2.407E-07 alpha_mix =  0.700 |ddv_scf|^2 =  1.739E-14

      iter #   6 total cpu time :   456.3 secs   av.it.:  10.0
      thresh= 1.319E-08 alpha_mix =  0.700 |ddv_scf|^2 =  4.541E-16

     End of self-consistent calculation

     Convergence has been achieved 

     Number of q in the star =    8
     List of q in the star:
          1  -0.333333333   0.333333333  -0.333333333
          2   0.333333333   0.333333333   0.333333333
          3  -0.333333333  -0.333333333  -0.333333333
          4   0.333333333  -0.333333333   0.333333333
          5   0.333333333  -0.333333333  -0.333333333
          6   0.333333333   0.333333333  -0.333333333
          7  -0.333333333  -0.333333333   0.333333333
          8  -0.333333333   0.333333333   0.333333333

     Diagonalizing the dynamical matrix

     q = (   -0.333333333   0.333333333  -0.333333333 ) 

 **************************************************************************
     freq (    1) =       1.648830 [THz] =      54.999064 [cm-1]
     freq (    2) =       1.648830 [THz] =      54.999064 [cm-1]
     freq (    3) =       4.972309 [THz] =     165.858375 [cm-1]
     freq (    4) =       7.892997 [THz] =     263.282056 [cm-1]
     freq (    5) =       8.374017 [THz] =     279.327156 [cm-1]
     freq (    6) =       8.374017 [THz] =     279.327156 [cm-1]
 **************************************************************************

     Mode symmetry, C_3v (3m)   point group:

     freq (  1 -  2) =         55.0  [cm-1]   --> E    L_3           
     freq (  3 -  3) =        165.9  [cm-1]   --> A_1  L_1           
     freq (  4 -  4) =        263.3  [cm-1]   --> A_1  L_1           
     freq (  5 -  6) =        279.3  [cm-1]   --> E    L_3           

     Calculation of q =    0.5000000  -0.5000000   0.5000000

     G-vector sticks info
     --------------------
     sticks:   dense  smooth     PW     G-vecs:    dense   smooth      PW
     Sum         805     805    283                14841    14841    3143


     Title: 
     Phonons of Ge                                                              


     bravais-lattice index     =            2
     lattice parameter (alat)  =      10.7450  a.u.
     unit-cell volume          =     310.1411 (a.u.)^3
     number of atoms/cell      =            2
     number of atomic types    =            1
     number of electrons       =         8.00
     number of Kohn-Sham states=           30
     kinetic-energy cutoff     =      50.0000  Ry
     charge density cutoff     =     200.0000  Ry
     Exchange-correlation= PBESOL
                           (   1   4  10   8   0   0   0)

     celldm(1)=  10.745000  celldm(2)=   0.000000  celldm(3)=   0.000000
     celldm(4)=   0.000000  celldm(5)=   0.000000  celldm(6)=   0.000000

     crystal axes: (cart. coord. in units of alat)
               a(1) = (  -0.500000   0.000000   0.500000 )  
               a(2) = (   0.000000   0.500000   0.500000 )  
               a(3) = (  -0.500000   0.500000   0.000000 )  

     reciprocal axes: (cart. coord. in units 2 pi/alat)
               b(1) = ( -1.000000 -1.000000  1.000000 )  
               b(2) = (  1.000000  1.000000  1.000000 )  
               b(3) = ( -1.000000  1.000000 -1.000000 )  


     PseudoPot. # 1 for Ge read from file:
     ./Ge.pbesol-n-kjpaw_psl.1.0.0.UPF
     MD5 check sum: ba6169c2b85c6e6c9360c21392c70c8c
     Pseudo is Projector augmented-wave + core cor, Zval =  4.0
     Generated using "atomic" code by A. Dal Corso v.6.3
     Shape of augmentation charge: PSQ
     Using radial grid of 1207 points,  4 beta functions with: 
                l(1) =   0
                l(2) =   0
                l(3) =   1
                l(4) =   1
     Q(r) pseudized with 0 coefficients 


     atomic species   valence    mass     pseudopotential
        Ge             4.00    72.64000     Ge( 1.00)

     48 Sym. Ops., with inversion, found



   Cartesian axes

     site n.     atom                  positions (alat units)
         1           Ge  tau(   1) = (   0.0000000   0.0000000   0.0000000  )
         2           Ge  tau(   2) = (  -0.2500000   0.2500000   0.2500000  )

     number of k points=  4218

     Number of k-points >= 100: set verbosity='high' to print them.

     Dense  grid:    14841 G-vectors     FFT dimensions: (  36,  36,  36)

     Estimated max dynamical RAM per process >      17.88 MB

     Estimated total dynamical RAM >       2.24 GB

     The potential is recalculated from file :
     ./temp/_ph0/Ge.q_4/Ge.save/charge-density

     Starting wfcs are    8 atomic +   22 random wfcs
     Checking if some PAW data can be deallocated... 

     Band Structure Calculation
     Davidson diagonalization with overlap

     ethr =  1.25E-10,  avg # of iterations = 21.6

     total cpu time spent up to now is      163.1 secs

     End of band structure calculation

     Number of k-points >= 100: set verbosity='high' to print the bands.

     highest occupied, lowest unoccupied level (ev):     5.4893    5.6179

     Writing output data file ./temp/_ph0/Ge.q_4/Ge.save/

     Phonons of Ge                                                              

     bravais-lattice index     =            2
     lattice parameter (alat)  =      10.7450  a.u.
     unit-cell volume          =     310.1411 (a.u.)^3
     number of atoms/cell      =            2
     number of atomic types    =            1
     kinetic-energy cut-off    =      50.0000  Ry
     charge density cut-off    =     200.0000  Ry
     convergence threshold     =      1.0E-14
     beta                      =       0.7000
     number of iterations used =            4
     Exchange-correlation= PBESOL
                           (   1   4  10   8   0   0   0)


     celldm(1)=   10.74500  celldm(2)=    0.00000  celldm(3)=    0.00000
     celldm(4)=    0.00000  celldm(5)=    0.00000  celldm(6)=    0.00000

     crystal axes: (cart. coord. in units of alat)
               a(1) = ( -0.5000  0.0000  0.5000 )  
               a(2) = (  0.0000  0.5000  0.5000 )  
               a(3) = ( -0.5000  0.5000  0.0000 )  

     reciprocal axes: (cart. coord. in units 2 pi/alat)
               b(1) = ( -1.0000 -1.0000  1.0000 )  
               b(2) = (  1.0000  1.0000  1.0000 )  
               b(3) = ( -1.0000  1.0000 -1.0000 )  


     Atoms inside the unit cell: 

     Cartesian axes

     site n.  atom      mass           positions (alat units)
        1     Ge  72.6400   tau(    1) = (    0.00000    0.00000    0.00000  )
        2     Ge  72.6400   tau(    2) = (   -0.25000    0.25000    0.25000  )

     Computing dynamical matrix for 
                    q = (   0.5000000  -0.5000000   0.5000000 )

     13 Sym.Ops. (with q -> -q+G )


     G cutoff =  584.9020  (  14841 G-vectors)     FFT grid: ( 36, 36, 36)
     number of k points=  4218

     PseudoPot. # 1 for Ge read from file:
     ./Ge.pbesol-n-kjpaw_psl.1.0.0.UPF
     MD5 check sum: ba6169c2b85c6e6c9360c21392c70c8c
     Pseudo is Projector augmented-wave + core cor, Zval =  4.0
     Generated using "atomic" code by A. Dal Corso v.6.3
     Shape of augmentation charge: PSQ
     Using radial grid of 1207 points,  4 beta functions with: 
                l(1) =   0
                l(2) =   0
                l(3) =   1
                l(4) =   1
     Q(r) pseudized with 0 coefficients 



     Atomic displacements:
     There are   4 irreducible representations

     Representation     1      1 modes -  To be done

     Representation     2      1 modes -  To be done

     Representation     3      2 modes -  To be done

     Representation     4      2 modes -  To be done



     Alpha used in Ewald sum =   2.1000
     PHONON       :   6m47.82s CPU   8m20.10s WALL



     Representation #  1 mode #   1

     Self-consistent Calculation

      iter #   1 total cpu time :   501.6 secs   av.it.:   5.1
      thresh= 1.000E-02 alpha_mix =  0.700 |ddv_scf|^2 =  3.488E-06

      iter #   2 total cpu time :   502.9 secs   av.it.:   9.3
      thresh= 1.868E-04 alpha_mix =  0.700 |ddv_scf|^2 =  3.763E-06

      iter #   3 total cpu time :   504.6 secs   av.it.:   8.5
      thresh= 1.940E-04 alpha_mix =  0.700 |ddv_scf|^2 =  1.948E-09

      iter #   4 total cpu time :   505.8 secs   av.it.:   9.2
      thresh= 4.413E-06 alpha_mix =  0.700 |ddv_scf|^2 =  8.880E-11

      iter #   5 total cpu time :   507.0 secs   av.it.:   9.0
      thresh= 9.423E-07 alpha_mix =  0.700 |ddv_scf|^2 =  9.645E-13

      iter #   6 total cpu time :   508.3 secs   av.it.:   8.4
      thresh= 9.821E-08 alpha_mix =  0.700 |ddv_scf|^2 =  1.415E-14

      iter #   7 total cpu time :   510.6 secs   av.it.:   8.4
      thresh= 1.189E-08 alpha_mix =  0.700 |ddv_scf|^2 =  4.631E-16

     End of self-consistent calculation

     Convergence has been achieved 


     Representation #  2 mode #   2

     Self-consistent Calculation

      iter #   1 total cpu time :   512.8 secs   av.it.:   5.9
      thresh= 1.000E-02 alpha_mix =  0.700 |ddv_scf|^2 =  4.253E-05

      iter #   2 total cpu time :   514.6 secs   av.it.:   9.2
      thresh= 6.522E-04 alpha_mix =  0.700 |ddv_scf|^2 =  1.159E-04

      iter #   3 total cpu time :   516.0 secs   av.it.:   8.2
      thresh= 1.076E-03 alpha_mix =  0.700 |ddv_scf|^2 =  3.347E-08

      iter #   4 total cpu time :   517.2 secs   av.it.:   8.9
      thresh= 1.830E-05 alpha_mix =  0.700 |ddv_scf|^2 =  5.914E-10

      iter #   5 total cpu time :   518.5 secs   av.it.:   9.4
      thresh= 2.432E-06 alpha_mix =  0.700 |ddv_scf|^2 =  3.761E-11

      iter #   6 total cpu time :   520.6 secs   av.it.:   9.0
      thresh= 6.133E-07 alpha_mix =  0.700 |ddv_scf|^2 =  8.131E-13

      iter #   7 total cpu time :   521.9 secs   av.it.:   8.4
      thresh= 9.017E-08 alpha_mix =  0.700 |ddv_scf|^2 =  2.381E-15

     End of self-consistent calculation

     Convergence has been achieved 


     Representation #  3 modes #   3  4

     Self-consistent Calculation

      iter #   1 total cpu time :   528.5 secs   av.it.:   5.0
      thresh= 1.000E-02 alpha_mix =  0.700 |ddv_scf|^2 =  6.828E-08

      iter #   2 total cpu time :   532.0 secs   av.it.:  10.2
      thresh= 2.613E-05 alpha_mix =  0.700 |ddv_scf|^2 =  3.213E-09

      iter #   3 total cpu time :   539.7 secs   av.it.:  10.2
      thresh= 5.668E-06 alpha_mix =  0.700 |ddv_scf|^2 =  2.462E-10

      iter #   4 total cpu time :   546.3 secs   av.it.:  10.1
      thresh= 1.569E-06 alpha_mix =  0.700 |ddv_scf|^2 =  6.644E-12

      iter #   5 total cpu time :   549.8 secs   av.it.:   9.3
      thresh= 2.578E-07 alpha_mix =  0.700 |ddv_scf|^2 =  4.558E-15

     End of self-consistent calculation

     Convergence has been achieved 


     Representation #  4 modes #   5  6

     Self-consistent Calculation

      iter #   1 total cpu time :   553.6 secs   av.it.:   4.7
      thresh= 1.000E-02 alpha_mix =  0.700 |ddv_scf|^2 =  2.353E-08

      iter #   2 total cpu time :   556.6 secs   av.it.:  10.3
      thresh= 1.534E-05 alpha_mix =  0.700 |ddv_scf|^2 =  9.900E-10

      iter #   3 total cpu time :   560.1 secs   av.it.:  10.3
      thresh= 3.146E-06 alpha_mix =  0.700 |ddv_scf|^2 =  3.654E-11

      iter #   4 total cpu time :   564.6 secs   av.it.:   9.7
      thresh= 6.045E-07 alpha_mix =  0.700 |ddv_scf|^2 =  2.291E-13

      iter #   5 total cpu time :   568.2 secs   av.it.:   9.8
      thresh= 4.787E-08 alpha_mix =  0.700 |ddv_scf|^2 =  3.691E-15

     End of self-consistent calculation

     Convergence has been achieved 

     Number of q in the star =    4
     List of q in the star:
          1   0.500000000  -0.500000000   0.500000000
          2   0.500000000   0.500000000   0.500000000
          3  -0.500000000   0.500000000   0.500000000
          4   0.500000000   0.500000000  -0.500000000

     Diagonalizing the dynamical matrix

     q = (    0.500000000  -0.500000000   0.500000000 ) 

 **************************************************************************
     freq (    1) =       1.713861 [THz] =      57.168259 [cm-1]
     freq (    2) =       1.713861 [THz] =      57.168259 [cm-1]
     freq (    3) =       6.446510 [THz] =     215.032418 [cm-1]
     freq (    4) =       6.959042 [THz] =     232.128658 [cm-1]
     freq (    5) =       8.340601 [THz] =     278.212510 [cm-1]
     freq (    6) =       8.340601 [THz] =     278.212510 [cm-1]
 **************************************************************************

     Calculation of q =    0.0000000   0.3333333   0.0000000

     G-vector sticks info
     --------------------
     sticks:   dense  smooth     PW     G-vecs:    dense   smooth      PW
     Sum         805     805    265                14841    14841    2837


     Title: 
     Phonons of Ge                                                              


     bravais-lattice index     =            2
     lattice parameter (alat)  =      10.7450  a.u.
     unit-cell volume          =     310.1411 (a.u.)^3
     number of atoms/cell      =            2
     number of atomic types    =            1
     number of electrons       =         8.00
     number of Kohn-Sham states=           30
     kinetic-energy cutoff     =      50.0000  Ry
     charge density cutoff     =     200.0000  Ry
     Exchange-correlation= PBESOL
                           (   1   4  10   8   0   0   0)

     celldm(1)=  10.745000  celldm(2)=   0.000000  celldm(3)=   0.000000
     celldm(4)=   0.000000  celldm(5)=   0.000000  celldm(6)=   0.000000

     crystal axes: (cart. coord. in units of alat)
               a(1) = (  -0.500000   0.000000   0.500000 )  
               a(2) = (   0.000000   0.500000   0.500000 )  
               a(3) = (  -0.500000   0.500000   0.000000 )  

     reciprocal axes: (cart. coord. in units 2 pi/alat)
               b(1) = ( -1.000000 -1.000000  1.000000 )  
               b(2) = (  1.000000  1.000000  1.000000 )  
               b(3) = ( -1.000000  1.000000 -1.000000 )  


     PseudoPot. # 1 for Ge read from file:
     ./Ge.pbesol-n-kjpaw_psl.1.0.0.UPF
     MD5 check sum: ba6169c2b85c6e6c9360c21392c70c8c
     Pseudo is Projector augmented-wave + core cor, Zval =  4.0
     Generated using "atomic" code by A. Dal Corso v.6.3
     Shape of augmentation charge: PSQ
     Using radial grid of 1207 points,  4 beta functions with: 
                l(1) =   0
                l(2) =   0
                l(3) =   1
                l(4) =   1
     Q(r) pseudized with 0 coefficients 


     atomic species   valence    mass     pseudopotential
        Ge             4.00    72.64000     Ge( 1.00)

     48 Sym. Ops., with inversion, found



   Cartesian axes

     site n.     atom                  positions (alat units)
         1           Ge  tau(   1) = (   0.0000000   0.0000000   0.0000000  )
         2           Ge  tau(   2) = (  -0.2500000   0.2500000   0.2500000  )

     number of k points=  6156

     Number of k-points >= 100: set verbosity='high' to print them.

     Dense  grid:    14841 G-vectors     FFT dimensions: (  36,  36,  36)

     Estimated max dynamical RAM per process >      17.87 MB

     Estimated total dynamical RAM >       2.23 GB

     The potential is recalculated from file :
     ./temp/_ph0/Ge.q_5/Ge.save/charge-density

     Starting wfcs are    8 atomic +   22 random wfcs
     Checking if some PAW data can be deallocated... 

     Band Structure Calculation
     Davidson diagonalization with overlap

     ethr =  1.25E-10,  avg # of iterations = 21.5

     total cpu time spent up to now is      214.8 secs

     End of band structure calculation

     Number of k-points >= 100: set verbosity='high' to print the bands.

     highest occupied, lowest unoccupied level (ev):     5.4893    5.6179

     Writing output data file ./temp/_ph0/Ge.q_5/Ge.save/

     Phonons of Ge                                                              

     bravais-lattice index     =            2
     lattice parameter (alat)  =      10.7450  a.u.
     unit-cell volume          =     310.1411 (a.u.)^3
     number of atoms/cell      =            2
     number of atomic types    =            1
     kinetic-energy cut-off    =      50.0000  Ry
     charge density cut-off    =     200.0000  Ry
     convergence threshold     =      1.0E-14
     beta                      =       0.7000
     number of iterations used =            4
     Exchange-correlation= PBESOL
                           (   1   4  10   8   0   0   0)


     celldm(1)=   10.74500  celldm(2)=    0.00000  celldm(3)=    0.00000
     celldm(4)=    0.00000  celldm(5)=    0.00000  celldm(6)=    0.00000

     crystal axes: (cart. coord. in units of alat)
               a(1) = ( -0.5000  0.0000  0.5000 )  
               a(2) = (  0.0000  0.5000  0.5000 )  
               a(3) = ( -0.5000  0.5000  0.0000 )  

     reciprocal axes: (cart. coord. in units 2 pi/alat)
               b(1) = ( -1.0000 -1.0000  1.0000 )  
               b(2) = (  1.0000  1.0000  1.0000 )  
               b(3) = ( -1.0000  1.0000 -1.0000 )  


     Atoms inside the unit cell: 

     Cartesian axes

     site n.  atom      mass           positions (alat units)
        1     Ge  72.6400   tau(    1) = (    0.00000    0.00000    0.00000  )
        2     Ge  72.6400   tau(    2) = (   -0.25000    0.25000    0.25000  )

     Computing dynamical matrix for 
                    q = (   0.0000000   0.3333333   0.0000000 )

      8 Sym.Ops. (no q -> -q+G )


     G cutoff =  584.9020  (  14841 G-vectors)     FFT grid: ( 36, 36, 36)
     number of k points=  6156

     PseudoPot. # 1 for Ge read from file:
     ./Ge.pbesol-n-kjpaw_psl.1.0.0.UPF
     MD5 check sum: ba6169c2b85c6e6c9360c21392c70c8c
     Pseudo is Projector augmented-wave + core cor, Zval =  4.0
     Generated using "atomic" code by A. Dal Corso v.6.3
     Shape of augmentation charge: PSQ
     Using radial grid of 1207 points,  4 beta functions with: 
                l(1) =   0
                l(2) =   0
                l(3) =   1
                l(4) =   1
     Q(r) pseudized with 0 coefficients 


     Mode symmetry, C_4v (4mm)  point group:


     Atomic displacements:
     There are   4 irreducible representations

     Representation     1      1 modes -A_1  G_1 D_1  To be done

     Representation     2      1 modes -B_2  G_4 D_2'  To be done

     Representation     3      2 modes -E    G_5 D_5  To be done

     Representation     4      2 modes -E    G_5 D_5  To be done



     Alpha used in Ewald sum =   2.1000
     PHONON       :   8m27.18s CPU  10m25.81s WALL



     Representation #  1 mode #   1

     Self-consistent Calculation

      iter #   1 total cpu time :   627.8 secs   av.it.:   6.0
      thresh= 1.000E-02 alpha_mix =  0.700 |ddv_scf|^2 =  3.020E-03

      iter #   2 total cpu time :   629.5 secs   av.it.:   8.2
      thresh= 5.495E-03 alpha_mix =  0.700 |ddv_scf|^2 =  1.270E-01

      iter #   3 total cpu time :   631.6 secs   av.it.:   7.5
      thresh= 1.000E-02 alpha_mix =  0.700 |ddv_scf|^2 =  5.261E-08

      iter #   4 total cpu time :   633.3 secs   av.it.:   8.3
      thresh= 2.294E-05 alpha_mix =  0.700 |ddv_scf|^2 =  2.452E-08

      iter #   5 total cpu time :   634.8 secs   av.it.:   7.4
      thresh= 1.566E-05 alpha_mix =  0.700 |ddv_scf|^2 =  6.715E-11

      iter #   6 total cpu time :   637.1 secs   av.it.:   8.3
      thresh= 8.195E-07 alpha_mix =  0.700 |ddv_scf|^2 =  3.847E-12

      iter #   7 total cpu time :   639.8 secs   av.it.:   8.1
      thresh= 1.961E-07 alpha_mix =  0.700 |ddv_scf|^2 =  2.473E-13

      iter #   8 total cpu time :   643.5 secs   av.it.:   6.7
      thresh= 4.973E-08 alpha_mix =  0.700 |ddv_scf|^2 =  1.019E-16

     End of self-consistent calculation

     Convergence has been achieved 


     Representation #  2 mode #   2

     Self-consistent Calculation

      iter #   1 total cpu time :   646.7 secs   av.it.:   4.9
      thresh= 1.000E-02 alpha_mix =  0.700 |ddv_scf|^2 =  2.581E-07

      iter #   2 total cpu time :   649.8 secs   av.it.:   9.6
      thresh= 5.080E-05 alpha_mix =  0.700 |ddv_scf|^2 =  5.188E-08

      iter #   3 total cpu time :   651.6 secs   av.it.:   9.5
      thresh= 2.278E-05 alpha_mix =  0.700 |ddv_scf|^2 =  1.988E-09

      iter #   4 total cpu time :   653.3 secs   av.it.:   9.5
      thresh= 4.458E-06 alpha_mix =  0.700 |ddv_scf|^2 =  5.841E-11

      iter #   5 total cpu time :   656.6 secs   av.it.:   9.2
      thresh= 7.643E-07 alpha_mix =  0.700 |ddv_scf|^2 =  1.800E-12

      iter #   6 total cpu time :   658.9 secs   av.it.:   9.0
      thresh= 1.342E-07 alpha_mix =  0.700 |ddv_scf|^2 =  8.002E-15

     End of self-consistent calculation

     Convergence has been achieved 


     Representation #  3 modes #   3  4

     Self-consistent Calculation

      iter #   1 total cpu time :   667.1 secs   av.it.:   5.1
      thresh= 1.000E-02 alpha_mix =  0.700 |ddv_scf|^2 =  4.529E-08

      iter #   2 total cpu time :   671.8 secs   av.it.:  10.4
      thresh= 2.128E-05 alpha_mix =  0.700 |ddv_scf|^2 =  2.397E-09

      iter #   3 total cpu time :   675.4 secs   av.it.:  10.4
      thresh= 4.896E-06 alpha_mix =  0.700 |ddv_scf|^2 =  2.004E-10

      iter #   4 total cpu time :   678.7 secs   av.it.:  10.3
      thresh= 1.415E-06 alpha_mix =  0.700 |ddv_scf|^2 =  6.221E-12

      iter #   5 total cpu time :   683.8 secs   av.it.:   9.8
      thresh= 2.494E-07 alpha_mix =  0.700 |ddv_scf|^2 =  2.381E-14

      iter #   6 total cpu time :   687.5 secs   av.it.:   9.7
      thresh= 1.543E-08 alpha_mix =  0.700 |ddv_scf|^2 =  7.976E-16

     End of self-consistent calculation

     Convergence has been achieved 


     Representation #  4 modes #   5  6

     Self-consistent Calculation

      iter #   1 total cpu time :   696.7 secs   av.it.:   5.1
      thresh= 1.000E-02 alpha_mix =  0.700 |ddv_scf|^2 =  5.733E-08

      iter #   2 total cpu time :   701.6 secs   av.it.:  10.4
      thresh= 2.394E-05 alpha_mix =  0.700 |ddv_scf|^2 =  2.990E-09

      iter #   3 total cpu time :   707.6 secs   av.it.:  10.4
      thresh= 5.468E-06 alpha_mix =  0.700 |ddv_scf|^2 =  2.262E-10

      iter #   4 total cpu time :   711.7 secs   av.it.:  10.3
      thresh= 1.504E-06 alpha_mix =  0.700 |ddv_scf|^2 =  6.438E-12

      iter #   5 total cpu time :   715.2 secs   av.it.:   9.8
      thresh= 2.537E-07 alpha_mix =  0.700 |ddv_scf|^2 =  2.905E-14

      iter #   6 total cpu time :   719.2 secs   av.it.:   9.7
      thresh= 1.704E-08 alpha_mix =  0.700 |ddv_scf|^2 =  9.303E-16

     End of self-consistent calculation

     Convergence has been achieved 

     Number of q in the star =    6
     List of q in the star:
          1   0.000000000   0.333333333   0.000000000
          2   0.333333333   0.000000000   0.000000000
          3   0.000000000   0.000000000   0.333333333
          4   0.000000000  -0.333333333   0.000000000
          5  -0.333333333   0.000000000   0.000000000
          6   0.000000000   0.000000000  -0.333333333

     Diagonalizing the dynamical matrix

     q = (    0.000000000   0.333333333   0.000000000 ) 

 **************************************************************************
     freq (    1) =       1.611097 [THz] =      53.740411 [cm-1]
     freq (    2) =       1.611097 [THz] =      53.740411 [cm-1]
     freq (    3) =       2.717858 [THz] =      90.657981 [cm-1]
     freq (    4) =       8.277916 [THz] =     276.121552 [cm-1]
     freq (    5) =       8.277916 [THz] =     276.121552 [cm-1]
     freq (    6) =       8.655403 [THz] =     288.713160 [cm-1]
 **************************************************************************

     Mode symmetry, C_4v (4mm)  point group:

     freq (  1 -  2) =         53.7  [cm-1]   --> E    G_5 D_5       
     freq (  3 -  3) =         90.7  [cm-1]   --> A_1  G_1 D_1       
     freq (  4 -  5) =        276.1  [cm-1]   --> E    G_5 D_5       
     freq (  6 -  6) =        288.7  [cm-1]   --> B_2  G_4 D_2'      

     Calculation of q =   -0.1666667   0.5000000  -0.1666667

     G-vector sticks info
     --------------------
     sticks:   dense  smooth     PW     G-vecs:    dense   smooth      PW
     Sum         805     805    271                14841    14841    2975


     Title: 
     Phonons of Ge                                                              


     bravais-lattice index     =            2
     lattice parameter (alat)  =      10.7450  a.u.
     unit-cell volume          =     310.1411 (a.u.)^3
     number of atoms/cell      =            2
     number of atomic types    =            1
     number of electrons       =         8.00
     number of Kohn-Sham states=           30
     kinetic-energy cutoff     =      50.0000  Ry
     charge density cutoff     =     200.0000  Ry
     Exchange-correlation= PBESOL
                           (   1   4  10   8   0   0   0)

     celldm(1)=  10.745000  celldm(2)=   0.000000  celldm(3)=   0.000000
     celldm(4)=   0.000000  celldm(5)=   0.000000  celldm(6)=   0.000000

     crystal axes: (cart. coord. in units of alat)
               a(1) = (  -0.500000   0.000000   0.500000 )  
               a(2) = (   0.000000   0.500000   0.500000 )  
               a(3) = (  -0.500000   0.500000   0.000000 )  

     reciprocal axes: (cart. coord. in units 2 pi/alat)
               b(1) = ( -1.000000 -1.000000  1.000000 )  
               b(2) = (  1.000000  1.000000  1.000000 )  
               b(3) = ( -1.000000  1.000000 -1.000000 )  


     PseudoPot. # 1 for Ge read from file:
     ./Ge.pbesol-n-kjpaw_psl.1.0.0.UPF
     MD5 check sum: ba6169c2b85c6e6c9360c21392c70c8c
     Pseudo is Projector augmented-wave + core cor, Zval =  4.0
     Generated using "atomic" code by A. Dal Corso v.6.3
     Shape of augmentation charge: PSQ
     Using radial grid of 1207 points,  4 beta functions with: 
                l(1) =   0
                l(2) =   0
                l(3) =   1
                l(4) =   1
     Q(r) pseudized with 0 coefficients 


     atomic species   valence    mass     pseudopotential
        Ge             4.00    72.64000     Ge( 1.00)

     48 Sym. Ops., with inversion, found



   Cartesian axes

     site n.     atom                  positions (alat units)
         1           Ge  tau(   1) = (   0.0000000   0.0000000   0.0000000  )
         2           Ge  tau(   2) = (  -0.2500000   0.2500000   0.2500000  )

     number of k points= 23976

     Number of k-points >= 100: set verbosity='high' to print them.

     Dense  grid:    14841 G-vectors     FFT dimensions: (  36,  36,  36)

     Estimated max dynamical RAM per process >      17.88 MB

     Estimated total dynamical RAM >       2.23 GB

     The potential is recalculated from file :
     ./temp/_ph0/Ge.q_6/Ge.save/charge-density

     Starting wfcs are    8 atomic +   22 random wfcs
     Checking if some PAW data can be deallocated... 

     Band Structure Calculation
     Davidson diagonalization with overlap

     ethr =  1.25E-10,  avg # of iterations = 21.5

     total cpu time spent up to now is      363.5 secs

     End of band structure calculation

     Number of k-points >= 100: set verbosity='high' to print the bands.

     highest occupied, lowest unoccupied level (ev):     5.4893    5.6179

     Writing output data file ./temp/_ph0/Ge.q_6/Ge.save/

     Phonons of Ge                                                              

     bravais-lattice index     =            2
     lattice parameter (alat)  =      10.7450  a.u.
     unit-cell volume          =     310.1411 (a.u.)^3
     number of atoms/cell      =            2
     number of atomic types    =            1
     kinetic-energy cut-off    =      50.0000  Ry
     charge density cut-off    =     200.0000  Ry
     convergence threshold     =      1.0E-14
     beta                      =       0.7000
     number of iterations used =            4
     Exchange-correlation= PBESOL
                           (   1   4  10   8   0   0   0)


     celldm(1)=   10.74500  celldm(2)=    0.00000  celldm(3)=    0.00000
     celldm(4)=    0.00000  celldm(5)=    0.00000  celldm(6)=    0.00000

     crystal axes: (cart. coord. in units of alat)
               a(1) = ( -0.5000  0.0000  0.5000 )  
               a(2) = (  0.0000  0.5000  0.5000 )  
               a(3) = ( -0.5000  0.5000  0.0000 )  

     reciprocal axes: (cart. coord. in units 2 pi/alat)
               b(1) = ( -1.0000 -1.0000  1.0000 )  
               b(2) = (  1.0000  1.0000  1.0000 )  
               b(3) = ( -1.0000  1.0000 -1.0000 )  


     Atoms inside the unit cell: 

     Cartesian axes

     site n.  atom      mass           positions (alat units)
        1     Ge  72.6400   tau(    1) = (    0.00000    0.00000    0.00000  )
        2     Ge  72.6400   tau(    2) = (   -0.25000    0.25000    0.25000  )

     Computing dynamical matrix for 
                    q = (  -0.1666667   0.5000000  -0.1666667 )

      2 Sym.Ops. (no q -> -q+G )


     G cutoff =  584.9020  (  14841 G-vectors)     FFT grid: ( 36, 36, 36)
     number of k points= 23976

     PseudoPot. # 1 for Ge read from file:
     ./Ge.pbesol-n-kjpaw_psl.1.0.0.UPF
     MD5 check sum: ba6169c2b85c6e6c9360c21392c70c8c
     Pseudo is Projector augmented-wave + core cor, Zval =  4.0
     Generated using "atomic" code by A. Dal Corso v.6.3
     Shape of augmentation charge: PSQ
     Using radial grid of 1207 points,  4 beta functions with: 
                l(1) =   0
                l(2) =   0
                l(3) =   1
                l(4) =   1
     Q(r) pseudized with 0 coefficients 


     Mode symmetry, C_s (m)     point group:


     Atomic displacements:
     There are   6 irreducible representations

     Representation     1      1 modes -A'  To be done

     Representation     2      1 modes -A'  To be done

     Representation     3      1 modes -A'  To be done

     Representation     4      1 modes -A'  To be done

     Representation     5      1 modes -A''  To be done

     Representation     6      1 modes -A''  To be done



     Alpha used in Ewald sum =   2.1000
     PHONON       :  12m 6.98s CPU  14m42.16s WALL



     Representation #  1 mode #   1

     Self-consistent Calculation

      iter #   1 total cpu time :   890.8 secs   av.it.:   5.9
      thresh= 1.000E-02 alpha_mix =  0.700 |ddv_scf|^2 =  1.371E-04

      iter #   2 total cpu time :   896.3 secs   av.it.:   9.0
      thresh= 1.171E-03 alpha_mix =  0.700 |ddv_scf|^2 =  1.663E-03

      iter #   3 total cpu time :   901.4 secs   av.it.:   7.4
      thresh= 4.078E-03 alpha_mix =  0.700 |ddv_scf|^2 =  9.613E-08

      iter #   4 total cpu time :   907.2 secs   av.it.:   9.6
      thresh= 3.100E-05 alpha_mix =  0.700 |ddv_scf|^2 =  1.001E-08

      iter #   5 total cpu time :   913.5 secs   av.it.:   9.3
      thresh= 1.001E-05 alpha_mix =  0.700 |ddv_scf|^2 =  1.708E-10

      iter #   6 total cpu time :   922.3 secs   av.it.:   9.6
      thresh= 1.307E-06 alpha_mix =  0.700 |ddv_scf|^2 =  2.447E-11

      iter #   7 total cpu time :   932.3 secs   av.it.:   9.5
      thresh= 4.946E-07 alpha_mix =  0.700 |ddv_scf|^2 =  6.711E-11

      iter #   8 total cpu time :   941.7 secs   av.it.:   8.0
      thresh= 8.192E-07 alpha_mix =  0.700 |ddv_scf|^2 =  2.106E-11

      iter #   9 total cpu time :   947.2 secs   av.it.:   8.2
      thresh= 4.589E-07 alpha_mix =  0.700 |ddv_scf|^2 =  1.351E-11

      iter #  10 total cpu time :   953.3 secs   av.it.:   8.0
      thresh= 3.676E-07 alpha_mix =  0.700 |ddv_scf|^2 =  1.585E-14

      iter #  11 total cpu time :   960.8 secs   av.it.:   9.5
      thresh= 1.259E-08 alpha_mix =  0.700 |ddv_scf|^2 =  3.081E-15

     End of self-consistent calculation

     Convergence has been achieved 


     Representation #  2 mode #   2

     Self-consistent Calculation

      iter #   1 total cpu time :   971.2 secs   av.it.:   5.7
      thresh= 1.000E-02 alpha_mix =  0.700 |ddv_scf|^2 =  9.210E-05

      iter #   2 total cpu time :   977.2 secs   av.it.:   9.0
      thresh= 9.597E-04 alpha_mix =  0.700 |ddv_scf|^2 =  1.112E-03

      iter #   3 total cpu time :   982.6 secs   av.it.:   7.4
      thresh= 3.334E-03 alpha_mix =  0.700 |ddv_scf|^2 =  6.863E-08

      iter #   4 total cpu time :   988.8 secs   av.it.:   9.6
      thresh= 2.620E-05 alpha_mix =  0.700 |ddv_scf|^2 =  7.975E-09

      iter #   5 total cpu time :   995.9 secs   av.it.:   9.4
      thresh= 8.930E-06 alpha_mix =  0.700 |ddv_scf|^2 =  1.856E-10

      iter #   6 total cpu time :  1002.7 secs   av.it.:   9.4
      thresh= 1.362E-06 alpha_mix =  0.700 |ddv_scf|^2 =  1.602E-11

      iter #   7 total cpu time :  1013.1 secs   av.it.:   9.3
      thresh= 4.002E-07 alpha_mix =  0.700 |ddv_scf|^2 =  6.482E-11

      iter #   8 total cpu time :  1019.2 secs   av.it.:   7.7
      thresh= 8.051E-07 alpha_mix =  0.700 |ddv_scf|^2 =  1.850E-12

      iter #   9 total cpu time :  1025.4 secs   av.it.:   8.8
      thresh= 1.360E-07 alpha_mix =  0.700 |ddv_scf|^2 =  1.948E-12

      iter #  10 total cpu time :  1033.3 secs   av.it.:   8.0
      thresh= 1.396E-07 alpha_mix =  0.700 |ddv_scf|^2 =  4.709E-14

      iter #  11 total cpu time :  1039.3 secs   av.it.:   8.9
      thresh= 2.170E-08 alpha_mix =  0.700 |ddv_scf|^2 =  2.140E-15

     End of self-consistent calculation

     Convergence has been achieved 


     Representation #  3 mode #   3

     Self-consistent Calculation

      iter #   1 total cpu time :  1051.1 secs   av.it.:   5.6
      thresh= 1.000E-02 alpha_mix =  0.700 |ddv_scf|^2 =  6.319E-05

      iter #   2 total cpu time :  1059.1 secs   av.it.:   9.0
      thresh= 7.949E-04 alpha_mix =  0.700 |ddv_scf|^2 =  7.650E-04

      iter #   3 total cpu time :  1064.5 secs   av.it.:   7.4
      thresh= 2.766E-03 alpha_mix =  0.700 |ddv_scf|^2 =  5.510E-08

      iter #   4 total cpu time :  1070.3 secs   av.it.:   9.5
      thresh= 2.347E-05 alpha_mix =  0.700 |ddv_scf|^2 =  5.856E-09

      iter #   5 total cpu time :  1077.3 secs   av.it.:   9.4
      thresh= 7.652E-06 alpha_mix =  0.700 |ddv_scf|^2 =  2.048E-10

      iter #   6 total cpu time :  1084.7 secs   av.it.:   9.7
      thresh= 1.431E-06 alpha_mix =  0.700 |ddv_scf|^2 =  1.933E-11

      iter #   7 total cpu time :  1091.6 secs   av.it.:   9.6
      thresh= 4.397E-07 alpha_mix =  0.700 |ddv_scf|^2 =  8.647E-12

      iter #   8 total cpu time :  1098.3 secs   av.it.:   8.4
      thresh= 2.941E-07 alpha_mix =  0.700 |ddv_scf|^2 =  1.325E-11

      iter #   9 total cpu time :  1104.8 secs   av.it.:   8.0
      thresh= 3.639E-07 alpha_mix =  0.700 |ddv_scf|^2 =  4.458E-12

      iter #  10 total cpu time :  1111.3 secs   av.it.:   7.6
      thresh= 2.111E-07 alpha_mix =  0.700 |ddv_scf|^2 =  2.602E-14

      iter #  11 total cpu time :  1117.0 secs   av.it.:   8.9
      thresh= 1.613E-08 alpha_mix =  0.700 |ddv_scf|^2 =  1.209E-15

     End of self-consistent calculation

     Convergence has been achieved 


     Representation #  4 mode #   4

     Self-consistent Calculation

      iter #   1 total cpu time :  1128.6 secs   av.it.:   5.3
      thresh= 1.000E-02 alpha_mix =  0.700 |ddv_scf|^2 =  1.829E-05

      iter #   2 total cpu time :  1136.1 secs   av.it.:   9.0
      thresh= 4.277E-04 alpha_mix =  0.700 |ddv_scf|^2 =  2.152E-04

      iter #   3 total cpu time :  1142.0 secs   av.it.:   7.4
      thresh= 1.467E-03 alpha_mix =  0.700 |ddv_scf|^2 =  3.929E-08

      iter #   4 total cpu time :  1147.9 secs   av.it.:   9.6
      thresh= 1.982E-05 alpha_mix =  0.700 |ddv_scf|^2 =  3.581E-09

      iter #   5 total cpu time :  1154.4 secs   av.it.:   9.5
      thresh= 5.984E-06 alpha_mix =  0.700 |ddv_scf|^2 =  2.089E-10

      iter #   6 total cpu time :  1163.0 secs   av.it.:   9.6
      thresh= 1.445E-06 alpha_mix =  0.700 |ddv_scf|^2 =  2.012E-11

      iter #   7 total cpu time :  1169.4 secs   av.it.:   9.3
      thresh= 4.486E-07 alpha_mix =  0.700 |ddv_scf|^2 =  1.338E-11

      iter #   8 total cpu time :  1174.8 secs   av.it.:   8.3
      thresh= 3.658E-07 alpha_mix =  0.700 |ddv_scf|^2 =  2.431E-11

      iter #   9 total cpu time :  1181.1 secs   av.it.:   7.9
      thresh= 4.931E-07 alpha_mix =  0.700 |ddv_scf|^2 =  3.474E-12

      iter #  10 total cpu time :  1186.6 secs   av.it.:   8.0
      thresh= 1.864E-07 alpha_mix =  0.700 |ddv_scf|^2 =  3.870E-14

      iter #  11 total cpu time :  1192.8 secs   av.it.:   9.2
      thresh= 1.967E-08 alpha_mix =  0.700 |ddv_scf|^2 =  2.067E-15

     End of self-consistent calculation

     Convergence has been achieved 


     Representation #  5 mode #   5

     Self-consistent Calculation

      iter #   1 total cpu time :  1200.0 secs   av.it.:   5.1
      thresh= 1.000E-02 alpha_mix =  0.700 |ddv_scf|^2 =  2.840E-07

      iter #   2 total cpu time :  1206.1 secs   av.it.:   9.7
      thresh= 5.329E-05 alpha_mix =  0.700 |ddv_scf|^2 =  1.998E-08

      iter #   3 total cpu time :  1211.8 secs   av.it.:   9.6
      thresh= 1.414E-05 alpha_mix =  0.700 |ddv_scf|^2 =  1.108E-09

      iter #   4 total cpu time :  1217.6 secs   av.it.:   9.6
      thresh= 3.328E-06 alpha_mix =  0.700 |ddv_scf|^2 =  2.878E-11

      iter #   5 total cpu time :  1224.7 secs   av.it.:   9.0
      thresh= 5.365E-07 alpha_mix =  0.700 |ddv_scf|^2 =  1.844E-13

      iter #   6 total cpu time :  1231.5 secs   av.it.:   8.7
      thresh= 4.294E-08 alpha_mix =  0.700 |ddv_scf|^2 =  3.183E-15

     End of self-consistent calculation

     Convergence has been achieved 


     Representation #  6 mode #   6

     Self-consistent Calculation

      iter #   1 total cpu time :  1240.7 secs   av.it.:   5.1
      thresh= 1.000E-02 alpha_mix =  0.700 |ddv_scf|^2 =  2.840E-07

      iter #   2 total cpu time :  1248.9 secs   av.it.:   9.7
      thresh= 5.329E-05 alpha_mix =  0.700 |ddv_scf|^2 =  1.998E-08

      iter #   3 total cpu time :  1255.3 secs   av.it.:   9.6
      thresh= 1.414E-05 alpha_mix =  0.700 |ddv_scf|^2 =  1.108E-09

      iter #   4 total cpu time :  1263.6 secs   av.it.:   9.6
      thresh= 3.328E-06 alpha_mix =  0.700 |ddv_scf|^2 =  2.878E-11

      iter #   5 total cpu time :  1271.2 secs   av.it.:   9.0
      thresh= 5.365E-07 alpha_mix =  0.700 |ddv_scf|^2 =  1.844E-13

      iter #   6 total cpu time :  1277.3 secs   av.it.:   8.7
      thresh= 4.294E-08 alpha_mix =  0.700 |ddv_scf|^2 =  3.183E-15

     End of self-consistent calculation

     Convergence has been achieved 

     Number of q in the star =   24
     List of q in the star:
          1  -0.166666667   0.500000000  -0.166666667
          2   0.166666667   0.500000000   0.166666667
          3  -0.166666667   0.500000000   0.166666667
          4   0.166666667   0.500000000  -0.166666667
          5   0.500000000  -0.166666667   0.166666667
          6   0.166666667  -0.166666667   0.500000000
          7  -0.166666667  -0.500000000  -0.166666667
          8   0.166666667  -0.500000000  -0.166666667
          9  -0.166666667  -0.500000000   0.166666667
         10   0.500000000  -0.166666667  -0.166666667
         11  -0.500000000  -0.166666667   0.166666667
         12   0.500000000   0.166666667   0.166666667
         13  -0.166666667   0.166666667  -0.500000000
         14  -0.166666667  -0.166666667   0.500000000
         15   0.166666667   0.166666667   0.500000000
         16   0.166666667  -0.166666667  -0.500000000
         17  -0.500000000   0.166666667  -0.166666667
         18  -0.500000000  -0.166666667  -0.166666667
         19   0.166666667  -0.500000000   0.166666667
         20   0.500000000   0.166666667  -0.166666667
         21   0.166666667   0.166666667  -0.500000000
         22  -0.166666667  -0.166666667  -0.500000000
         23  -0.500000000   0.166666667   0.166666667
         24  -0.166666667   0.166666667   0.500000000

     Diagonalizing the dynamical matrix

     q = (   -0.166666667   0.500000000  -0.166666667 ) 

 **************************************************************************
     freq (    1) =       1.933130 [THz] =      64.482272 [cm-1]
     freq (    2) =       2.389094 [THz] =      79.691597 [cm-1]
     freq (    3) =       4.156151 [THz] =     138.634281 [cm-1]
     freq (    4) =       7.809798 [THz] =     260.506836 [cm-1]
     freq (    5) =       8.103061 [THz] =     270.289035 [cm-1]
     freq (    6) =       8.335293 [THz] =     278.035439 [cm-1]
 **************************************************************************

     Mode symmetry, C_s (m)     point group:

     freq (  1 -  1) =         64.5  [cm-1]   --> A''                
     freq (  2 -  2) =         79.7  [cm-1]   --> A'                 
     freq (  3 -  3) =        138.6  [cm-1]   --> A'                 
     freq (  4 -  4) =        260.5  [cm-1]   --> A'                 
     freq (  5 -  5) =        270.3  [cm-1]   --> A''                
     freq (  6 -  6) =        278.0  [cm-1]   --> A'                 

     Calculation of q =    0.6666667  -0.3333333   0.6666667

     G-vector sticks info
     --------------------
     sticks:   dense  smooth     PW     G-vecs:    dense   smooth      PW
     Sum         805     805    295                14841    14841    3287


     Title: 
     Phonons of Ge                                                              


     bravais-lattice index     =            2
     lattice parameter (alat)  =      10.7450  a.u.
     unit-cell volume          =     310.1411 (a.u.)^3
     number of atoms/cell      =            2
     number of atomic types    =            1
     number of electrons       =         8.00
     number of Kohn-Sham states=           30
     kinetic-energy cutoff     =      50.0000  Ry
     charge density cutoff     =     200.0000  Ry
     Exchange-correlation= PBESOL
                           (   1   4  10   8   0   0   0)

     celldm(1)=  10.745000  celldm(2)=   0.000000  celldm(3)=   0.000000
     celldm(4)=   0.000000  celldm(5)=   0.000000  celldm(6)=   0.000000

     crystal axes: (cart. coord. in units of alat)
               a(1) = (  -0.500000   0.000000   0.500000 )  
               a(2) = (   0.000000   0.500000   0.500000 )  
               a(3) = (  -0.500000   0.500000   0.000000 )  

     reciprocal axes: (cart. coord. in units 2 pi/alat)
               b(1) = ( -1.000000 -1.000000  1.000000 )  
               b(2) = (  1.000000  1.000000  1.000000 )  
               b(3) = ( -1.000000  1.000000 -1.000000 )  


     PseudoPot. # 1 for Ge read from file:
     ./Ge.pbesol-n-kjpaw_psl.1.0.0.UPF
     MD5 check sum: ba6169c2b85c6e6c9360c21392c70c8c
     Pseudo is Projector augmented-wave + core cor, Zval =  4.0
     Generated using "atomic" code by A. Dal Corso v.6.3
     Shape of augmentation charge: PSQ
     Using radial grid of 1207 points,  4 beta functions with: 
                l(1) =   0
                l(2) =   0
                l(3) =   1
                l(4) =   1
     Q(r) pseudized with 0 coefficients 


     atomic species   valence    mass     pseudopotential
        Ge             4.00    72.64000     Ge( 1.00)

     48 Sym. Ops., with inversion, found



   Cartesian axes

     site n.     atom                  positions (alat units)
         1           Ge  tau(   1) = (   0.0000000   0.0000000   0.0000000  )
         2           Ge  tau(   2) = (  -0.2500000   0.2500000   0.2500000  )

     number of k points= 23976

     Number of k-points >= 100: set verbosity='high' to print them.

     Dense  grid:    14841 G-vectors     FFT dimensions: (  36,  36,  36)

     Estimated max dynamical RAM per process >      17.89 MB

     Estimated total dynamical RAM >       2.24 GB

     The potential is recalculated from file :
     ./temp/_ph0/Ge.q_7/Ge.save/charge-density

     Starting wfcs are    8 atomic +   22 random wfcs
     Checking if some PAW data can be deallocated... 

     Band Structure Calculation
     Davidson diagonalization with overlap

     ethr =  1.25E-10,  avg # of iterations = 21.4

     total cpu time spent up to now is      505.0 secs

     End of band structure calculation

     Number of k-points >= 100: set verbosity='high' to print the bands.

     highest occupied, lowest unoccupied level (ev):     5.4893    5.6179

     Writing output data file ./temp/_ph0/Ge.q_7/Ge.save/

     Phonons of Ge                                                              

     bravais-lattice index     =            2
     lattice parameter (alat)  =      10.7450  a.u.
     unit-cell volume          =     310.1411 (a.u.)^3
     number of atoms/cell      =            2
     number of atomic types    =            1
     kinetic-energy cut-off    =      50.0000  Ry
     charge density cut-off    =     200.0000  Ry
     convergence threshold     =      1.0E-14
     beta                      =       0.7000
     number of iterations used =            4
     Exchange-correlation= PBESOL
                           (   1   4  10   8   0   0   0)


     celldm(1)=   10.74500  celldm(2)=    0.00000  celldm(3)=    0.00000
     celldm(4)=    0.00000  celldm(5)=    0.00000  celldm(6)=    0.00000

     crystal axes: (cart. coord. in units of alat)
               a(1) = ( -0.5000  0.0000  0.5000 )  
               a(2) = (  0.0000  0.5000  0.5000 )  
               a(3) = ( -0.5000  0.5000  0.0000 )  

     reciprocal axes: (cart. coord. in units 2 pi/alat)
               b(1) = ( -1.0000 -1.0000  1.0000 )  
               b(2) = (  1.0000  1.0000  1.0000 )  
               b(3) = ( -1.0000  1.0000 -1.0000 )  


     Atoms inside the unit cell: 

     Cartesian axes

     site n.  atom      mass           positions (alat units)
        1     Ge  72.6400   tau(    1) = (    0.00000    0.00000    0.00000  )
        2     Ge  72.6400   tau(    2) = (   -0.25000    0.25000    0.25000  )

     Computing dynamical matrix for 
                    q = (   0.6666667  -0.3333333   0.6666667 )

      2 Sym.Ops. (no q -> -q+G )


     G cutoff =  584.9020  (  14841 G-vectors)     FFT grid: ( 36, 36, 36)
     number of k points= 23976

     PseudoPot. # 1 for Ge read from file:
     ./Ge.pbesol-n-kjpaw_psl.1.0.0.UPF
     MD5 check sum: ba6169c2b85c6e6c9360c21392c70c8c
[...]

      iter #   7 total cpu time :  4598.0 secs   av.it.:   9.4
      thresh= 7.503E-08 alpha_mix =  0.700 |ddv_scf|^2 =  2.612E-14

      iter #   8 total cpu time :  4607.5 secs   av.it.:   9.7
      thresh= 1.616E-08 alpha_mix =  0.700 |ddv_scf|^2 =  1.440E-14

      iter #   9 total cpu time :  4613.8 secs   av.it.:   9.0
      thresh= 1.200E-08 alpha_mix =  0.700 |ddv_scf|^2 =  1.352E-15

     End of self-consistent calculation

     Convergence has been achieved 


     Representation #  6 mode #   6

     Self-consistent Calculation

      iter #   1 total cpu time :  4621.9 secs   av.it.:   5.3
      thresh= 1.000E-02 alpha_mix =  0.700 |ddv_scf|^2 =  2.133E-06

      iter #   2 total cpu time :  4628.8 secs   av.it.:   9.8
      thresh= 1.460E-04 alpha_mix =  0.700 |ddv_scf|^2 =  2.563E-06

      iter #   3 total cpu time :  4634.7 secs   av.it.:   8.9
      thresh= 1.601E-04 alpha_mix =  0.700 |ddv_scf|^2 =  6.104E-08

      iter #   4 total cpu time :  4640.6 secs   av.it.:   9.2
      thresh= 2.471E-05 alpha_mix =  0.700 |ddv_scf|^2 =  1.038E-09

      iter #   5 total cpu time :  4646.5 secs   av.it.:   9.5
      thresh= 3.221E-06 alpha_mix =  0.700 |ddv_scf|^2 =  1.937E-11

      iter #   6 total cpu time :  4653.4 secs   av.it.:   8.8
      thresh= 4.401E-07 alpha_mix =  0.700 |ddv_scf|^2 =  1.497E-13

      iter #   7 total cpu time :  4660.7 secs   av.it.:   9.1
      thresh= 3.869E-08 alpha_mix =  0.700 |ddv_scf|^2 =  3.278E-15

     End of self-consistent calculation

     Convergence has been achieved 

     Number of q in the star =   24
     List of q in the star:
          1   0.500000000  -0.166666667   0.833333333
          2   0.833333333   0.166666667   0.500000000
          3   0.500000000   0.166666667   0.833333333
          4  -0.833333333  -0.166666667   0.500000000
          5  -0.833333333  -0.166666667  -0.500000000
          6  -0.500000000  -0.166666667  -0.833333333
          7   0.833333333  -0.166666667   0.500000000
          8  -0.500000000  -0.166666667   0.833333333
          9  -0.833333333   0.166666667   0.500000000
         10   0.833333333   0.166666667  -0.500000000
         11   0.833333333  -0.166666667  -0.500000000
         12   0.500000000   0.166666667  -0.833333333
         13  -0.500000000   0.166666667   0.833333333
         14  -0.500000000   0.166666667  -0.833333333
         15  -0.833333333   0.166666667  -0.500000000
         16   0.833333333  -0.500000000   0.166666667
         17   0.833333333   0.500000000  -0.166666667
         18  -0.833333333  -0.500000000  -0.166666667
         19  -0.833333333   0.500000000   0.166666667
         20   0.166666667  -0.500000000   0.833333333
         21  -0.166666667   0.500000000   0.833333333
         22   0.166666667   0.500000000  -0.833333333
         23  -0.166666667  -0.500000000  -0.833333333
         24  -0.500000000   0.833333333   0.166666667

     Diagonalizing the dynamical matrix

     q = (    0.500000000  -0.166666667   0.833333333 ) 

 **************************************************************************
     freq (    1) =       2.658216 [THz] =      88.668554 [cm-1]
     freq (    2) =       3.129810 [THz] =     104.399235 [cm-1]
     freq (    3) =       5.483436 [THz] =     182.907730 [cm-1]
     freq (    4) =       6.441628 [THz] =     214.869590 [cm-1]
     freq (    5) =       7.967612 [THz] =     265.770930 [cm-1]
     freq (    6) =       8.066786 [THz] =     269.079032 [cm-1]
 **************************************************************************

     Calculation of q =   -0.3333333  -1.0000000   0.0000000

     G-vector sticks info
     --------------------
     sticks:   dense  smooth     PW     G-vecs:    dense   smooth      PW
     Sum         805     805    295                14841    14841    3287


     Title: 
     Phonons of Ge                                                              


     bravais-lattice index     =            2
     lattice parameter (alat)  =      10.7450  a.u.
     unit-cell volume          =     310.1411 (a.u.)^3
     number of atoms/cell      =            2
     number of atomic types    =            1
     number of electrons       =         8.00
     number of Kohn-Sham states=           30
     kinetic-energy cutoff     =      50.0000  Ry
     charge density cutoff     =     200.0000  Ry
     Exchange-correlation= PBESOL
                           (   1   4  10   8   0   0   0)

     celldm(1)=  10.745000  celldm(2)=   0.000000  celldm(3)=   0.000000
     celldm(4)=   0.000000  celldm(5)=   0.000000  celldm(6)=   0.000000

     crystal axes: (cart. coord. in units of alat)
               a(1) = (  -0.500000   0.000000   0.500000 )  
               a(2) = (   0.000000   0.500000   0.500000 )  
               a(3) = (  -0.500000   0.500000   0.000000 )  

     reciprocal axes: (cart. coord. in units 2 pi/alat)
               b(1) = ( -1.000000 -1.000000  1.000000 )  
               b(2) = (  1.000000  1.000000  1.000000 )  
               b(3) = ( -1.000000  1.000000 -1.000000 )  


     PseudoPot. # 1 for Ge read from file:
     ./Ge.pbesol-n-kjpaw_psl.1.0.0.UPF
     MD5 check sum: ba6169c2b85c6e6c9360c21392c70c8c
     Pseudo is Projector augmented-wave + core cor, Zval =  4.0
     Generated using "atomic" code by A. Dal Corso v.6.3
     Shape of augmentation charge: PSQ
     Using radial grid of 1207 points,  4 beta functions with: 
                l(1) =   0
                l(2) =   0
                l(3) =   1
                l(4) =   1
     Q(r) pseudized with 0 coefficients 


     atomic species   valence    mass     pseudopotential
        Ge             4.00    72.64000     Ge( 1.00)

     48 Sym. Ops., with inversion, found



   Cartesian axes

     site n.     atom                  positions (alat units)
         1           Ge  tau(   1) = (   0.0000000   0.0000000   0.0000000  )
         2           Ge  tau(   2) = (  -0.2500000   0.2500000   0.2500000  )

     number of k points= 11664

     Number of k-points >= 100: set verbosity='high' to print them.

     Dense  grid:    14841 G-vectors     FFT dimensions: (  36,  36,  36)

     Estimated max dynamical RAM per process >      17.89 MB

     Estimated total dynamical RAM >       2.24 GB

     The potential is recalculated from file :
     ./temp/_ph0/Ge.q_16/Ge.save/charge-density

     Starting wfcs are    8 atomic +   22 random wfcs
     Checking if some PAW data can be deallocated... 

     Band Structure Calculation
     Davidson diagonalization with overlap

     ethr =  1.25E-10,  avg # of iterations = 21.4

     total cpu time spent up to now is     1342.5 secs

     End of band structure calculation

     Number of k-points >= 100: set verbosity='high' to print the bands.

     highest occupied, lowest unoccupied level (ev):     5.4893    5.6179

     Writing output data file ./temp/_ph0/Ge.q_16/Ge.save/

     Phonons of Ge                                                              

     bravais-lattice index     =            2
     lattice parameter (alat)  =      10.7450  a.u.
     unit-cell volume          =     310.1411 (a.u.)^3
     number of atoms/cell      =            2
     number of atomic types    =            1
     kinetic-energy cut-off    =      50.0000  Ry
     charge density cut-off    =     200.0000  Ry
     convergence threshold     =      1.0E-14
     beta                      =       0.7000
     number of iterations used =            4
     Exchange-correlation= PBESOL
                           (   1   4  10   8   0   0   0)


     celldm(1)=   10.74500  celldm(2)=    0.00000  celldm(3)=    0.00000
     celldm(4)=    0.00000  celldm(5)=    0.00000  celldm(6)=    0.00000

     crystal axes: (cart. coord. in units of alat)
               a(1) = ( -0.5000  0.0000  0.5000 )  
               a(2) = (  0.0000  0.5000  0.5000 )  
               a(3) = ( -0.5000  0.5000  0.0000 )  

     reciprocal axes: (cart. coord. in units 2 pi/alat)
               b(1) = ( -1.0000 -1.0000  1.0000 )  
               b(2) = (  1.0000  1.0000  1.0000 )  
               b(3) = ( -1.0000  1.0000 -1.0000 )  


     Atoms inside the unit cell: 

     Cartesian axes

     site n.  atom      mass           positions (alat units)
        1     Ge  72.6400   tau(    1) = (    0.00000    0.00000    0.00000  )
        2     Ge  72.6400   tau(    2) = (   -0.25000    0.25000    0.25000  )

     Computing dynamical matrix for 
                    q = (  -0.3333333  -1.0000000   0.0000000 )

      4 Sym.Ops. (no q -> -q+G )


     G cutoff =  584.9020  (  14841 G-vectors)     FFT grid: ( 36, 36, 36)
     number of k points= 11664

     PseudoPot. # 1 for Ge read from file:
     ./Ge.pbesol-n-kjpaw_psl.1.0.0.UPF
     MD5 check sum: ba6169c2b85c6e6c9360c21392c70c8c
     Pseudo is Projector augmented-wave + core cor, Zval =  4.0
     Generated using "atomic" code by A. Dal Corso v.6.3
     Shape of augmentation charge: PSQ
     Using radial grid of 1207 points,  4 beta functions with: 
                l(1) =   0
                l(2) =   0
                l(3) =   1
                l(4) =   1
     Q(r) pseudized with 0 coefficients 



     Atomic displacements:
     There are   3 irreducible representations

     Representation     1      2 modes -  To be done

     Representation     2      2 modes -  To be done

     Representation     3      2 modes -  To be done



     Alpha used in Ewald sum =   2.1000
     PHONON       :      1h 7m CPU      1h18m WALL



     Representation #  1 modes #   1  2

     Self-consistent Calculation

      iter #   1 total cpu time :  4751.8 secs   av.it.:   5.3
      thresh= 1.000E-02 alpha_mix =  0.700 |ddv_scf|^2 =  4.692E-07

      iter #   2 total cpu time :  4759.6 secs   av.it.:  10.5
      thresh= 6.850E-05 alpha_mix =  0.700 |ddv_scf|^2 =  5.188E-07

      iter #   3 total cpu time :  4774.1 secs   av.it.:   9.9
      thresh= 7.203E-05 alpha_mix =  0.700 |ddv_scf|^2 =  5.653E-09

      iter #   4 total cpu time :  4780.1 secs   av.it.:  10.1
      thresh= 7.519E-06 alpha_mix =  0.700 |ddv_scf|^2 =  3.586E-10

      iter #   5 total cpu time :  4787.7 secs   av.it.:  10.1
      thresh= 1.894E-06 alpha_mix =  0.700 |ddv_scf|^2 =  5.698E-12

      iter #   6 total cpu time :  4795.5 secs   av.it.:   9.9
      thresh= 2.387E-07 alpha_mix =  0.700 |ddv_scf|^2 =  6.681E-14

      iter #   7 total cpu time :  4808.2 secs   av.it.:  10.2
      thresh= 2.585E-08 alpha_mix =  0.700 |ddv_scf|^2 =  2.268E-15

     End of self-consistent calculation

     Convergence has been achieved 


     Representation #  2 modes #   3  4

     Self-consistent Calculation

      iter #   1 total cpu time :  4821.5 secs   av.it.:   5.5
      thresh= 1.000E-02 alpha_mix =  0.700 |ddv_scf|^2 =  8.450E-07

      iter #   2 total cpu time :  4832.2 secs   av.it.:  10.4
      thresh= 9.192E-05 alpha_mix =  0.700 |ddv_scf|^2 =  1.000E-06

      iter #   3 total cpu time :  4841.5 secs   av.it.:   9.7
      thresh= 1.000E-04 alpha_mix =  0.700 |ddv_scf|^2 =  8.663E-09

      iter #   4 total cpu time :  4848.0 secs   av.it.:  10.0
      thresh= 9.308E-06 alpha_mix =  0.700 |ddv_scf|^2 =  3.744E-10

      iter #   5 total cpu time :  4854.4 secs   av.it.:  10.1
      thresh= 1.935E-06 alpha_mix =  0.700 |ddv_scf|^2 =  6.174E-12

      iter #   6 total cpu time :  4862.1 secs   av.it.:   9.8
      thresh= 2.485E-07 alpha_mix =  0.700 |ddv_scf|^2 =  1.141E-13

      iter #   7 total cpu time :  4870.5 secs   av.it.:  10.1
      thresh= 3.378E-08 alpha_mix =  0.700 |ddv_scf|^2 =  4.085E-15

     End of self-consistent calculation

     Convergence has been achieved 


     Representation #  3 modes #   5  6

     Self-consistent Calculation

      iter #   1 total cpu time :  4882.5 secs   av.it.:   5.4
      thresh= 1.000E-02 alpha_mix =  0.700 |ddv_scf|^2 =  1.039E-06

      iter #   2 total cpu time :  4898.1 secs   av.it.:  10.3
      thresh= 1.019E-04 alpha_mix =  0.700 |ddv_scf|^2 =  1.071E-06

      iter #   3 total cpu time :  4903.8 secs   av.it.:   9.6
      thresh= 1.035E-04 alpha_mix =  0.700 |ddv_scf|^2 =  1.400E-08

      iter #   4 total cpu time :  4912.0 secs   av.it.:   9.9
      thresh= 1.183E-05 alpha_mix =  0.700 |ddv_scf|^2 =  3.896E-10

      iter #   5 total cpu time :  4918.1 secs   av.it.:  10.0
      thresh= 1.974E-06 alpha_mix =  0.700 |ddv_scf|^2 =  5.901E-12

      iter #   6 total cpu time :  4925.5 secs   av.it.:   9.6
      thresh= 2.429E-07 alpha_mix =  0.700 |ddv_scf|^2 =  9.519E-14

      iter #   7 total cpu time :  4932.5 secs   av.it.:   9.8
      thresh= 3.085E-08 alpha_mix =  0.700 |ddv_scf|^2 =  1.357E-15

     End of self-consistent calculation

     Convergence has been achieved 

     Number of q in the star =   12
     List of q in the star:
          1  -0.333333333  -1.000000000   0.000000000
          2   0.000000000  -1.000000000  -0.333333333
          3   0.000000000  -1.000000000   0.333333333
          4   0.333333333  -1.000000000   0.000000000
          5  -1.000000000   0.000000000  -0.333333333
          6   1.000000000   0.000000000   0.333333333
          7   0.000000000   0.333333333   1.000000000
          8   0.000000000  -0.333333333  -1.000000000
          9  -1.000000000  -0.333333333   0.000000000
         10   1.000000000   0.333333333   0.000000000
         11  -0.333333333   0.000000000   1.000000000
         12   0.333333333   0.000000000   1.000000000

     Diagonalizing the dynamical matrix

     q = (   -0.333333333  -1.000000000   0.000000000 ) 

 **************************************************************************
     freq (    1) =       2.834438 [THz] =      94.546685 [cm-1]
     freq (    2) =       2.834438 [THz] =      94.546685 [cm-1]
     freq (    3) =       6.163984 [THz] =     205.608360 [cm-1]
     freq (    4) =       6.163984 [THz] =     205.608360 [cm-1]
     freq (    5) =       7.930620 [THz] =     264.536993 [cm-1]
     freq (    6) =       7.930620 [THz] =     264.536993 [cm-1]
 **************************************************************************

     init_run     :      8.05s CPU     16.19s WALL (      15 calls)
     electrons    :   1142.51s CPU   1291.66s WALL (      15 calls)

     Called by init_run:
     wfcinit      :      0.00s CPU      2.39s WALL (      15 calls)
     potinit      :      1.73s CPU      7.44s WALL (      15 calls)
     hinit0       :      2.98s CPU      2.99s WALL (      15 calls)

     Called by electrons:
     c_bands      :   1142.47s CPU   1291.61s WALL (      15 calls)
     v_of_rho     :      0.33s CPU      0.35s WALL (      16 calls)
     newd         :      0.02s CPU      0.02s WALL (      16 calls)
     PAW_pot      :      0.53s CPU      0.59s WALL (      16 calls)

     Called by c_bands:
     init_us_2    :     12.41s CPU     16.22s WALL (   48078 calls)
     cegterg      :    837.24s CPU    844.00s WALL (    2843 calls)

     Called by sum_band:

     Called by *egterg:
     h_psi        :   2042.50s CPU   2068.10s WALL (  493401 calls)
     s_psi        :     57.99s CPU     59.16s WALL (  985638 calls)
     g_psi        :      4.27s CPU      4.31s WALL (   37877 calls)
     cdiaghg      :     74.46s CPU     75.05s WALL (   39569 calls)

     Called by h_psi:
     h_psi:calbec :     31.67s CPU     32.00s WALL (  493401 calls)
     vloc_psi     :   1973.89s CPU   1998.65s WALL (  493401 calls)
     add_vuspsi   :     31.48s CPU     32.01s WALL (  493401 calls)

     General routines
     calbec       :     79.04s CPU     80.74s WALL ( 1065750 calls)
     fft          :      5.06s CPU      5.52s WALL (   12266 calls)
     ffts         :      2.12s CPU      2.30s WALL (    5688 calls)
     fftw         :   2207.16s CPU   2247.01s WALL ( 5554606 calls)
     davcio       :     27.15s CPU    207.91s WALL (  213678 calls)

     Parallel routines

     PHONON       :      1h 9m CPU      1h22m WALL

     INITIALIZATION: 
     phq_setup    :      1.32s CPU      4.95s WALL (      16 calls)
     phq_init     :     57.45s CPU     61.75s WALL (      16 calls)

     phq_init     :     57.45s CPU     61.75s WALL (      16 calls)
     set_drhoc    :      9.38s CPU      9.44s WALL (      48 calls)
     init_vloc    :      0.04s CPU      0.04s WALL (      16 calls)
     init_us_1    :      2.74s CPU      2.75s WALL (      16 calls)
     newd         :      0.02s CPU      0.02s WALL (      16 calls)
     dvanqq       :      1.32s CPU      1.33s WALL (      16 calls)
     drho         :     38.49s CPU     41.21s WALL (      16 calls)

     DYNAMICAL MATRIX:
     dynmat0      :      9.85s CPU     11.23s WALL (      16 calls)
     phqscf       :   2932.71s CPU   3459.58s WALL (      16 calls)
     dynmatrix    :      0.44s CPU      3.25s WALL (      16 calls)

     phqscf       :   2932.71s CPU   3459.58s WALL (      16 calls)
     solve_linter :   2920.27s CPU   3413.92s WALL (      76 calls)
     drhodv       :     10.68s CPU     11.31s WALL (      76 calls)

     dynmat0      :      9.85s CPU     11.23s WALL (      16 calls)
     dynmat_us    :      3.08s CPU      3.17s WALL (      16 calls)
     d2ionq       :      0.07s CPU      0.07s WALL (      16 calls)
     dynmatcc     :      6.58s CPU      6.61s WALL (      16 calls)

     dynmat_us    :      3.08s CPU      3.17s WALL (      16 calls)
     addusdynmat  :      0.00s CPU      0.00s WALL (      16 calls)

     phqscf       :   2932.71s CPU   3459.58s WALL (      16 calls)
     solve_linter :   2920.27s CPU   3413.92s WALL (      76 calls)

     solve_linter :   2920.27s CPU   3413.92s WALL (      76 calls)
     dvqpsi_us    :    148.41s CPU    150.30s WALL (    5136 calls)
     ortho        :      6.92s CPU      7.39s WALL (   41233 calls)
     cgsolve      :   1559.06s CPU   1581.75s WALL (   41233 calls)
     incdrhoscf   :    161.04s CPU    172.43s WALL (   41233 calls)
     addusddens   :      9.08s CPU      9.23s WALL (     667 calls)
     vpsifft      :    128.35s CPU    136.34s WALL (   36022 calls)
     dv_of_drho   :      6.70s CPU      7.02s WALL (     728 calls)
     mix_pot      :      0.77s CPU     96.07s WALL (     597 calls)
     psymdvscf    :      7.04s CPU      7.08s WALL (     591 calls)
     newdq        :      8.99s CPU      9.07s WALL (     597 calls)
     adddvscf     :     26.57s CPU     26.87s WALL (   36097 calls)
     drhodvus     :      0.11s CPU      0.20s WALL (      76 calls)

     dvqpsi_us    :    148.41s CPU    150.30s WALL (    5136 calls)
     dvqpsi_us_on :     10.97s CPU     11.07s WALL (    5136 calls)

     cgsolve      :   1559.06s CPU   1581.75s WALL (   41233 calls)
     ch_psi       :   1534.51s CPU   1556.50s WALL (  450989 calls)

     ch_psi       :   1534.51s CPU   1556.50s WALL (  450989 calls)
     h_psi        :   2042.50s CPU   2068.10s WALL (  493401 calls)
     last         :     75.56s CPU     76.73s WALL (  450989 calls)

     h_psi        :   2042.50s CPU   2068.10s WALL (  493401 calls)
     add_vuspsi   :     31.48s CPU     32.01s WALL (  493401 calls)

     incdrhoscf   :    161.04s CPU    172.43s WALL (   41233 calls)
     addusdbec    :     14.23s CPU     14.35s WALL (   46339 calls)

     drhodvus     :      0.11s CPU      0.20s WALL (      76 calls)

      General routines
     calbec       :     79.04s CPU     80.74s WALL ( 1065750 calls)
     fft          :      5.06s CPU      5.52s WALL (   12266 calls)
     ffts         :      2.12s CPU      2.30s WALL (    5688 calls)
     fftw         :   2207.16s CPU   2247.01s WALL ( 5554606 calls)
     davcio       :     27.15s CPU    207.91s WALL (  213678 calls)
     write_rec    :      0.69s CPU    215.30s WALL (     673 calls)


     PHONON       :      1h 9m CPU      1h22m WALL


   This run was terminated on:  15:22:47   4Feb2022            

=------------------------------------------------------------------------------=
   JOB DONE.
=------------------------------------------------------------------------------=
