
     Program PWSCF v.6.5 starts on  4Feb2022 at 14: 0: 7 

     This program is part of the open-source Quantum ESPRESSO suite
     for quantum simulation of materials; please cite
         "P. Giannozzi et al., J. Phys.:Condens. Matter 21 395502 (2009);
         "P. Giannozzi et al., J. Phys.:Condens. Matter 29 465901 (2017);
          URL http://www.quantum-espresso.org", 
     in publications or presentations arising from this work. More details at
     http://www.quantum-espresso.org/quote

     Parallel version (MPI), running on   128 processors

     MPI processes distributed on     2 nodes
     K-points division:     npool     =     128
     Reading input from scf.in
Warning: card  &IONS ignored
Warning: card  / ignored
Warning: card &CELL ignored
Warning: card     CELL_DYNAMICS   = 'BFGS', ignored
Warning: card     PRESS           = 0.00, ignored
Warning: card     WMASS           = 0.007, ignored
Warning: card / ignored

     Current dimensions of program PWSCF are:
     Max number of different atomic species (ntypx) = 10
     Max number of k-points (npk) =  40000
     Max angular momentum in pseudopotentials (lmaxx) =  3

     Subspace diagonalization in iterative solution of the eigenvalue problem:
     a serial algorithm will be used


     G-vector sticks info
     --------------------
     sticks:   dense  smooth     PW     G-vecs:    dense   smooth      PW
     Sum         805     805    253                14841    14841    2685



     bravais-lattice index     =            2
     lattice parameter (alat)  =      10.7450  a.u.
     unit-cell volume          =     310.1411 (a.u.)^3
     number of atoms/cell      =            2
     number of atomic types    =            1
     number of electrons       =         8.00
     number of Kohn-Sham states=           30
     kinetic-energy cutoff     =      50.0000  Ry
     charge density cutoff     =     200.0000  Ry
     convergence threshold     =      1.0E-12
     mixing beta               =       0.7000
     number of iterations used =            8  plain     mixing
     Exchange-correlation= SLA PW PSX PSC
                           (   1   4  10   8   0   0   0)

     celldm(1)=  10.745000  celldm(2)=   0.000000  celldm(3)=   0.000000
     celldm(4)=   0.000000  celldm(5)=   0.000000  celldm(6)=   0.000000

     crystal axes: (cart. coord. in units of alat)
               a(1) = (  -0.500000   0.000000   0.500000 )  
               a(2) = (   0.000000   0.500000   0.500000 )  
               a(3) = (  -0.500000   0.500000   0.000000 )  

     reciprocal axes: (cart. coord. in units 2 pi/alat)
               b(1) = ( -1.000000 -1.000000  1.000000 )  
               b(2) = (  1.000000  1.000000  1.000000 )  
               b(3) = ( -1.000000  1.000000 -1.000000 )  


     PseudoPot. # 1 for Ge read from file:
     ./Ge.pbesol-n-kjpaw_psl.1.0.0.UPF
     MD5 check sum: ba6169c2b85c6e6c9360c21392c70c8c
     Pseudo is Projector augmented-wave + core cor, Zval =  4.0
     Generated using "atomic" code by A. Dal Corso v.6.3
     Shape of augmentation charge: PSQ
     Using radial grid of 1207 points,  4 beta functions with: 
                l(1) =   0
                l(2) =   0
                l(3) =   1
                l(4) =   1
     Q(r) pseudized with 0 coefficients 


     atomic species   valence    mass     pseudopotential
        Ge             4.00    72.64000     Ge( 1.00)

     48 Sym. Ops., with inversion, found (24 have fractional translation)


                                    s                        frac. trans.

      isym =  1     identity                                     

 cryst.   s( 1) = (     1          0          0      )
                  (     0          1          0      )
                  (     0          0          1      )

 cart.    s( 1) = (  1.0000000  0.0000000  0.0000000 )
                  (  0.0000000  1.0000000  0.0000000 )
                  (  0.0000000  0.0000000  1.0000000 )


      isym =  2     180 deg rotation - cart. axis [0,0,1]        

 cryst.   s( 2) = (     0          1         -1      )
                  (     1          0         -1      )
                  (     0          0         -1      )

 cart.    s( 2) = ( -1.0000000  0.0000000  0.0000000 )
                  (  0.0000000 -1.0000000  0.0000000 )
                  (  0.0000000  0.0000000  1.0000000 )


      isym =  3     180 deg rotation - cart. axis [0,1,0]        

 cryst.   s( 3) = (    -1          0          0      )
                  (    -1          0          1      )
                  (    -1          1          0      )

 cart.    s( 3) = ( -1.0000000  0.0000000  0.0000000 )
                  (  0.0000000  1.0000000  0.0000000 )
                  (  0.0000000  0.0000000 -1.0000000 )


      isym =  4     180 deg rotation - cart. axis [1,0,0]        

 cryst.   s( 4) = (     0         -1          1      )
                  (     0         -1          0      )
                  (     1         -1          0      )

 cart.    s( 4) = (  1.0000000  0.0000000  0.0000000 )
                  (  0.0000000 -1.0000000  0.0000000 )
                  (  0.0000000  0.0000000 -1.0000000 )


      isym =  5     180 deg rotation - cart. axis [1,1,0]        

 cryst.   s( 5) = (     0         -1          0      )    f =( -0.2500000 )
                  (    -1          0          0      )       ( -0.2500000 )
                  (     0          0         -1      )       ( -0.2500000 )

 cart.    s( 5) = (  0.0000000  1.0000000  0.0000000 )    f =(  0.2500000 )
                  (  1.0000000  0.0000000  0.0000000 )       ( -0.2500000 )
                  (  0.0000000  0.0000000 -1.0000000 )       ( -0.2500000 )


      isym =  6     180 deg rotation - cart. axis [1,-1,0]       

 cryst.   s( 6) = (    -1          0          1      )    f =( -0.2500000 )
                  (     0         -1          1      )       ( -0.2500000 )
                  (     0          0          1      )       ( -0.2500000 )

 cart.    s( 6) = (  0.0000000 -1.0000000  0.0000000 )    f =(  0.2500000 )
                  ( -1.0000000  0.0000000  0.0000000 )       ( -0.2500000 )
                  (  0.0000000  0.0000000 -1.0000000 )       ( -0.2500000 )


      isym =  7      90 deg rotation - cart. axis [0,0,-1]       

 cryst.   s( 7) = (     0          1          0      )    f =( -0.2500000 )
                  (     0          1         -1      )       ( -0.2500000 )
                  (    -1          1          0      )       ( -0.2500000 )

 cart.    s( 7) = (  0.0000000  1.0000000  0.0000000 )    f =(  0.2500000 )
                  ( -1.0000000  0.0000000  0.0000000 )       ( -0.2500000 )
                  (  0.0000000  0.0000000  1.0000000 )       ( -0.2500000 )


      isym =  8      90 deg rotation - cart. axis [0,0,1]        

 cryst.   s( 8) = (     1          0         -1      )    f =( -0.2500000 )
                  (     1          0          0      )       ( -0.2500000 )
                  (     1         -1          0      )       ( -0.2500000 )

 cart.    s( 8) = (  0.0000000 -1.0000000  0.0000000 )    f =(  0.2500000 )
                  (  1.0000000  0.0000000  0.0000000 )       ( -0.2500000 )
                  (  0.0000000  0.0000000  1.0000000 )       ( -0.2500000 )


      isym =  9     180 deg rotation - cart. axis [1,0,1]        

 cryst.   s( 9) = (    -1          0          0      )    f =( -0.2500000 )
                  (     0          0         -1      )       ( -0.2500000 )
                  (     0         -1          0      )       ( -0.2500000 )

 cart.    s( 9) = (  0.0000000  0.0000000  1.0000000 )    f =(  0.2500000 )
                  (  0.0000000 -1.0000000  0.0000000 )       ( -0.2500000 )
                  (  1.0000000  0.0000000  0.0000000 )       ( -0.2500000 )


      isym = 10     180 deg rotation - cart. axis [-1,0,1]       

 cryst.   s(10) = (     1          0          0      )    f =( -0.2500000 )
                  (     1         -1          0      )       ( -0.2500000 )
                  (     1          0         -1      )       ( -0.2500000 )

 cart.    s(10) = (  0.0000000  0.0000000 -1.0000000 )    f =(  0.2500000 )
                  (  0.0000000 -1.0000000  0.0000000 )       ( -0.2500000 )
                  ( -1.0000000  0.0000000  0.0000000 )       ( -0.2500000 )


      isym = 11      90 deg rotation - cart. axis [0,1,0]        

 cryst.   s(11) = (     0          1         -1      )    f =( -0.2500000 )
                  (    -1          1          0      )       ( -0.2500000 )
                  (     0          1          0      )       ( -0.2500000 )

 cart.    s(11) = (  0.0000000  0.0000000  1.0000000 )    f =(  0.2500000 )
                  (  0.0000000  1.0000000  0.0000000 )       ( -0.2500000 )
                  ( -1.0000000  0.0000000  0.0000000 )       ( -0.2500000 )


      isym = 12      90 deg rotation - cart. axis [0,-1,0]       

 cryst.   s(12) = (     0         -1          1      )    f =( -0.2500000 )
                  (     0          0          1      )       ( -0.2500000 )
                  (    -1          0          1      )       ( -0.2500000 )

 cart.    s(12) = (  0.0000000  0.0000000 -1.0000000 )    f =(  0.2500000 )
                  (  0.0000000  1.0000000  0.0000000 )       ( -0.2500000 )
                  (  1.0000000  0.0000000  0.0000000 )       ( -0.2500000 )


      isym = 13     180 deg rotation - cart. axis [0,1,1]        

 cryst.   s(13) = (    -1          1          0      )    f =( -0.2500000 )
                  (     0          1          0      )       ( -0.2500000 )
                  (     0          1         -1      )       ( -0.2500000 )

 cart.    s(13) = ( -1.0000000  0.0000000  0.0000000 )    f =(  0.2500000 )
                  (  0.0000000  0.0000000  1.0000000 )       ( -0.2500000 )
                  (  0.0000000  1.0000000  0.0000000 )       ( -0.2500000 )


      isym = 14     180 deg rotation - cart. axis [0,1,-1]       

 cryst.   s(14) = (     0          0         -1      )    f =( -0.2500000 )
                  (     0         -1          0      )       ( -0.2500000 )
                  (    -1          0          0      )       ( -0.2500000 )

 cart.    s(14) = ( -1.0000000  0.0000000  0.0000000 )    f =(  0.2500000 )
                  (  0.0000000  0.0000000 -1.0000000 )       ( -0.2500000 )
                  (  0.0000000 -1.0000000  0.0000000 )       ( -0.2500000 )


      isym = 15      90 deg rotation - cart. axis [-1,0,0]       

 cryst.   s(15) = (     0          0          1      )    f =( -0.2500000 )
                  (    -1          0          1      )       ( -0.2500000 )
                  (     0         -1          1      )       ( -0.2500000 )

 cart.    s(15) = (  1.0000000  0.0000000  0.0000000 )    f =(  0.2500000 )
                  (  0.0000000  0.0000000  1.0000000 )       ( -0.2500000 )
                  (  0.0000000 -1.0000000  0.0000000 )       ( -0.2500000 )


      isym = 16      90 deg rotation - cart. axis [1,0,0]        

 cryst.   s(16) = (     1         -1          0      )    f =( -0.2500000 )
                  (     1          0         -1      )       ( -0.2500000 )
                  (     1          0          0      )       ( -0.2500000 )

 cart.    s(16) = (  1.0000000  0.0000000  0.0000000 )    f =(  0.2500000 )
                  (  0.0000000  0.0000000 -1.0000000 )       ( -0.2500000 )
                  (  0.0000000  1.0000000  0.0000000 )       ( -0.2500000 )


      isym = 17     120 deg rotation - cart. axis [-1,-1,-1]     

 cryst.   s(17) = (    -1          0          1      )
                  (    -1          1          0      )
                  (    -1          0          0      )

 cart.    s(17) = (  0.0000000  1.0000000  0.0000000 )
                  (  0.0000000  0.0000000  1.0000000 )
                  (  1.0000000  0.0000000  0.0000000 )


      isym = 18     120 deg rotation - cart. axis [-1,1,1]       

 cryst.   s(18) = (     0          1          0      )
                  (     0          0          1      )
                  (     1          0          0      )

 cart.    s(18) = (  0.0000000 -1.0000000  0.0000000 )
                  (  0.0000000  0.0000000  1.0000000 )
                  ( -1.0000000  0.0000000  0.0000000 )


      isym = 19     120 deg rotation - cart. axis [1,1,-1]       

 cryst.   s(19) = (     1          0         -1      )
                  (     0          0         -1      )
                  (     0          1         -1      )

 cart.    s(19) = (  0.0000000  1.0000000  0.0000000 )
                  (  0.0000000  0.0000000 -1.0000000 )
                  ( -1.0000000  0.0000000  0.0000000 )


      isym = 20     120 deg rotation - cart. axis [1,-1,1]       

 cryst.   s(20) = (     0         -1          0      )
                  (     1         -1          0      )
                  (     0         -1          1      )

 cart.    s(20) = (  0.0000000 -1.0000000  0.0000000 )
                  (  0.0000000  0.0000000 -1.0000000 )
                  (  1.0000000  0.0000000  0.0000000 )


      isym = 21     120 deg rotation - cart. axis [1,1,1]        

 cryst.   s(21) = (     0          0         -1      )
                  (     0          1         -1      )
                  (     1          0         -1      )

 cart.    s(21) = (  0.0000000  0.0000000  1.0000000 )
                  (  1.0000000  0.0000000  0.0000000 )
                  (  0.0000000  1.0000000  0.0000000 )


      isym = 22     120 deg rotation - cart. axis [-1,1,-1]      

 cryst.   s(22) = (    -1          1          0      )
                  (    -1          0          0      )
                  (    -1          0          1      )

 cart.    s(22) = (  0.0000000  0.0000000  1.0000000 )
                  ( -1.0000000  0.0000000  0.0000000 )
                  (  0.0000000 -1.0000000  0.0000000 )


      isym = 23     120 deg rotation - cart. axis [1,-1,-1]      

 cryst.   s(23) = (     0          0          1      )
                  (     1          0          0      )
                  (     0          1          0      )

 cart.    s(23) = (  0.0000000  0.0000000 -1.0000000 )
                  ( -1.0000000  0.0000000  0.0000000 )
                  (  0.0000000  1.0000000  0.0000000 )


      isym = 24     120 deg rotation - cart. axis [-1,-1,1]      

 cryst.   s(24) = (     1         -1          0      )
                  (     0         -1          1      )
                  (     0         -1          0      )

 cart.    s(24) = (  0.0000000  0.0000000 -1.0000000 )
                  (  1.0000000  0.0000000  0.0000000 )
                  (  0.0000000 -1.0000000  0.0000000 )


      isym = 25     inversion                                    

 cryst.   s(25) = (    -1          0          0      )    f =( -0.2500000 )
                  (     0         -1          0      )       ( -0.2500000 )
                  (     0          0         -1      )       ( -0.2500000 )

 cart.    s(25) = ( -1.0000000  0.0000000  0.0000000 )    f =(  0.2500000 )
                  (  0.0000000 -1.0000000  0.0000000 )       ( -0.2500000 )
                  (  0.0000000  0.0000000 -1.0000000 )       ( -0.2500000 )


      isym = 26     inv. 180 deg rotation - cart. axis [0,0,1]   

 cryst.   s(26) = (     0         -1          1      )    f =( -0.2500000 )
                  (    -1          0          1      )       ( -0.2500000 )
                  (     0          0          1      )       ( -0.2500000 )

 cart.    s(26) = (  1.0000000  0.0000000  0.0000000 )    f =(  0.2500000 )
                  (  0.0000000  1.0000000  0.0000000 )       ( -0.2500000 )
                  (  0.0000000  0.0000000 -1.0000000 )       ( -0.2500000 )


      isym = 27     inv. 180 deg rotation - cart. axis [0,1,0]   

 cryst.   s(27) = (     1          0          0      )    f =( -0.2500000 )
                  (     1          0         -1      )       ( -0.2500000 )
                  (     1         -1          0      )       ( -0.2500000 )

 cart.    s(27) = (  1.0000000  0.0000000  0.0000000 )    f =(  0.2500000 )
                  (  0.0000000 -1.0000000  0.0000000 )       ( -0.2500000 )
                  (  0.0000000  0.0000000  1.0000000 )       ( -0.2500000 )


      isym = 28     inv. 180 deg rotation - cart. axis [1,0,0]   

 cryst.   s(28) = (     0          1         -1      )    f =( -0.2500000 )
                  (     0          1          0      )       ( -0.2500000 )
                  (    -1          1          0      )       ( -0.2500000 )

 cart.    s(28) = ( -1.0000000  0.0000000  0.0000000 )    f =(  0.2500000 )
                  (  0.0000000  1.0000000  0.0000000 )       ( -0.2500000 )
                  (  0.0000000  0.0000000  1.0000000 )       ( -0.2500000 )


      isym = 29     inv. 180 deg rotation - cart. axis [1,1,0]   

 cryst.   s(29) = (     0          1          0      )
                  (     1          0          0      )
                  (     0          0          1      )

 cart.    s(29) = (  0.0000000 -1.0000000  0.0000000 )
                  ( -1.0000000  0.0000000  0.0000000 )
                  (  0.0000000  0.0000000  1.0000000 )


      isym = 30     inv. 180 deg rotation - cart. axis [1,-1,0]  

 cryst.   s(30) = (     1          0         -1      )
                  (     0          1         -1      )
                  (     0          0         -1      )

 cart.    s(30) = (  0.0000000  1.0000000  0.0000000 )
                  (  1.0000000  0.0000000  0.0000000 )
                  (  0.0000000  0.0000000  1.0000000 )


      isym = 31     inv.  90 deg rotation - cart. axis [0,0,-1]  

 cryst.   s(31) = (     0         -1          0      )
                  (     0         -1          1      )
                  (     1         -1          0      )

 cart.    s(31) = (  0.0000000 -1.0000000  0.0000000 )
                  (  1.0000000  0.0000000  0.0000000 )
                  (  0.0000000  0.0000000 -1.0000000 )


      isym = 32     inv.  90 deg rotation - cart. axis [0,0,1]   

 cryst.   s(32) = (    -1          0          1      )
                  (    -1          0          0      )
                  (    -1          1          0      )

 cart.    s(32) = (  0.0000000  1.0000000  0.0000000 )
                  ( -1.0000000  0.0000000  0.0000000 )
                  (  0.0000000  0.0000000 -1.0000000 )


      isym = 33     inv. 180 deg rotation - cart. axis [1,0,1]   

 cryst.   s(33) = (     1          0          0      )
                  (     0          0          1      )
                  (     0          1          0      )

 cart.    s(33) = (  0.0000000  0.0000000 -1.0000000 )
                  (  0.0000000  1.0000000  0.0000000 )
                  ( -1.0000000  0.0000000  0.0000000 )


      isym = 34     inv. 180 deg rotation - cart. axis [-1,0,1]  

 cryst.   s(34) = (    -1          0          0      )
                  (    -1          1          0      )
                  (    -1          0          1      )

 cart.    s(34) = (  0.0000000  0.0000000  1.0000000 )
                  (  0.0000000  1.0000000  0.0000000 )
                  (  1.0000000  0.0000000  0.0000000 )


      isym = 35     inv.  90 deg rotation - cart. axis [0,1,0]   

 cryst.   s(35) = (     0         -1          1      )
                  (     1         -1          0      )
                  (     0         -1          0      )

 cart.    s(35) = (  0.0000000  0.0000000 -1.0000000 )
                  (  0.0000000 -1.0000000  0.0000000 )
                  (  1.0000000  0.0000000  0.0000000 )


      isym = 36     inv.  90 deg rotation - cart. axis [0,-1,0]  

 cryst.   s(36) = (     0          1         -1      )
                  (     0          0         -1      )
                  (     1          0         -1      )

 cart.    s(36) = (  0.0000000  0.0000000  1.0000000 )
                  (  0.0000000 -1.0000000  0.0000000 )
                  ( -1.0000000  0.0000000  0.0000000 )


      isym = 37     inv. 180 deg rotation - cart. axis [0,1,1]   

 cryst.   s(37) = (     1         -1          0      )
                  (     0         -1          0      )
                  (     0         -1          1      )

 cart.    s(37) = (  1.0000000  0.0000000  0.0000000 )
                  (  0.0000000  0.0000000 -1.0000000 )
                  (  0.0000000 -1.0000000  0.0000000 )


      isym = 38     inv. 180 deg rotation - cart. axis [0,1,-1]  

 cryst.   s(38) = (     0          0          1      )
                  (     0          1          0      )
                  (     1          0          0      )

 cart.    s(38) = (  1.0000000  0.0000000  0.0000000 )
                  (  0.0000000  0.0000000  1.0000000 )
                  (  0.0000000  1.0000000  0.0000000 )


      isym = 39     inv.  90 deg rotation - cart. axis [-1,0,0]  

 cryst.   s(39) = (     0          0         -1      )
                  (     1          0         -1      )
                  (     0          1         -1      )

 cart.    s(39) = ( -1.0000000  0.0000000  0.0000000 )
                  (  0.0000000  0.0000000 -1.0000000 )
                  (  0.0000000  1.0000000  0.0000000 )


      isym = 40     inv.  90 deg rotation - cart. axis [1,0,0]   

 cryst.   s(40) = (    -1          1          0      )
                  (    -1          0          1      )
                  (    -1          0          0      )

 cart.    s(40) = ( -1.0000000  0.0000000  0.0000000 )
                  (  0.0000000  0.0000000  1.0000000 )
                  (  0.0000000 -1.0000000  0.0000000 )


      isym = 41     inv. 120 deg rotation - cart. axis [-1,-1,-1]

 cryst.   s(41) = (     1          0         -1      )    f =( -0.2500000 )
                  (     1         -1          0      )       ( -0.2500000 )
                  (     1          0          0      )       ( -0.2500000 )

 cart.    s(41) = (  0.0000000 -1.0000000  0.0000000 )    f =(  0.2500000 )
                  (  0.0000000  0.0000000 -1.0000000 )       ( -0.2500000 )
                  ( -1.0000000  0.0000000  0.0000000 )       ( -0.2500000 )


      isym = 42     inv. 120 deg rotation - cart. axis [-1,1,1]  

 cryst.   s(42) = (     0         -1          0      )    f =( -0.2500000 )
                  (     0          0         -1      )       ( -0.2500000 )
                  (    -1          0          0      )       ( -0.2500000 )

 cart.    s(42) = (  0.0000000  1.0000000  0.0000000 )    f =(  0.2500000 )
                  (  0.0000000  0.0000000 -1.0000000 )       ( -0.2500000 )
                  (  1.0000000  0.0000000  0.0000000 )       ( -0.2500000 )


      isym = 43     inv. 120 deg rotation - cart. axis [1,1,-1]  

 cryst.   s(43) = (    -1          0          1      )    f =( -0.2500000 )
                  (     0          0          1      )       ( -0.2500000 )
                  (     0         -1          1      )       ( -0.2500000 )

 cart.    s(43) = (  0.0000000 -1.0000000  0.0000000 )    f =(  0.2500000 )
                  (  0.0000000  0.0000000  1.0000000 )       ( -0.2500000 )
                  (  1.0000000  0.0000000  0.0000000 )       ( -0.2500000 )


      isym = 44     inv. 120 deg rotation - cart. axis [1,-1,1]  

 cryst.   s(44) = (     0          1          0      )    f =( -0.2500000 )
                  (    -1          1          0      )       ( -0.2500000 )
                  (     0          1         -1      )       ( -0.2500000 )

 cart.    s(44) = (  0.0000000  1.0000000  0.0000000 )    f =(  0.2500000 )
                  (  0.0000000  0.0000000  1.0000000 )       ( -0.2500000 )
                  ( -1.0000000  0.0000000  0.0000000 )       ( -0.2500000 )


      isym = 45     inv. 120 deg rotation - cart. axis [1,1,1]   

 cryst.   s(45) = (     0          0          1      )    f =( -0.2500000 )
                  (     0         -1          1      )       ( -0.2500000 )
                  (    -1          0          1      )       ( -0.2500000 )

 cart.    s(45) = (  0.0000000  0.0000000 -1.0000000 )    f =(  0.2500000 )
                  ( -1.0000000  0.0000000  0.0000000 )       ( -0.2500000 )
                  (  0.0000000 -1.0000000  0.0000000 )       ( -0.2500000 )


      isym = 46     inv. 120 deg rotation - cart. axis [-1,1,-1] 

 cryst.   s(46) = (     1         -1          0      )    f =( -0.2500000 )
                  (     1          0          0      )       ( -0.2500000 )
                  (     1          0         -1      )       ( -0.2500000 )

 cart.    s(46) = (  0.0000000  0.0000000 -1.0000000 )    f =(  0.2500000 )
                  (  1.0000000  0.0000000  0.0000000 )       ( -0.2500000 )
                  (  0.0000000  1.0000000  0.0000000 )       ( -0.2500000 )


      isym = 47     inv. 120 deg rotation - cart. axis [1,-1,-1] 

 cryst.   s(47) = (     0          0         -1      )    f =( -0.2500000 )
                  (    -1          0          0      )       ( -0.2500000 )
                  (     0         -1          0      )       ( -0.2500000 )

 cart.    s(47) = (  0.0000000  0.0000000  1.0000000 )    f =(  0.2500000 )
                  (  1.0000000  0.0000000  0.0000000 )       ( -0.2500000 )
                  (  0.0000000 -1.0000000  0.0000000 )       ( -0.2500000 )


      isym = 48     inv. 120 deg rotation - cart. axis [-1,-1,1] 

 cryst.   s(48) = (    -1          1          0      )    f =( -0.2500000 )
                  (     0          1         -1      )       ( -0.2500000 )
                  (     0          1          0      )       ( -0.2500000 )

 cart.    s(48) = (  0.0000000  0.0000000  1.0000000 )    f =(  0.2500000 )
                  ( -1.0000000  0.0000000  0.0000000 )       ( -0.2500000 )
                  (  0.0000000  1.0000000  0.0000000 )       ( -0.2500000 )


     point group O_h (m-3m) 
     there are 10 classes
     the character table:

       E     8C3   3C2   6C4   6C2'  i     8S6   3s_h  6S4   6s_d 
A_1g   1.00  1.00  1.00  1.00  1.00  1.00  1.00  1.00  1.00  1.00
A_2g   1.00  1.00  1.00 -1.00 -1.00  1.00  1.00  1.00 -1.00 -1.00
E_g    2.00 -1.00  2.00  0.00  0.00  2.00 -1.00  2.00  0.00  0.00
T_1g   3.00  0.00 -1.00  1.00 -1.00  3.00  0.00 -1.00  1.00 -1.00
T_2g   3.00  0.00 -1.00 -1.00  1.00  3.00  0.00 -1.00 -1.00  1.00
A_1u   1.00  1.00  1.00  1.00  1.00 -1.00 -1.00 -1.00 -1.00 -1.00
A_2u   1.00  1.00  1.00 -1.00 -1.00 -1.00 -1.00 -1.00  1.00  1.00
E_u    2.00 -1.00  2.00  0.00  0.00 -2.00  1.00 -2.00  0.00  0.00
T_1u   3.00  0.00 -1.00  1.00 -1.00 -3.00  0.00  1.00 -1.00  1.00
T_2u   3.00  0.00 -1.00 -1.00  1.00 -3.00  0.00  1.00  1.00 -1.00

     the symmetry operations in each class and the name of the first element:

     E        1
          identity                                               
     8C3     17   19   20   18   24   21   22   23
          120 deg rotation - cart. axis [-1,-1,-1]               
     3C2      2    4    3
          180 deg rotation - cart. axis [0,0,1]                  
     6C4      7    8   15   16   12   11
           90 deg rotation - cart. axis [0,0,-1]                 
     6C2'     5    6   14   13   10    9
          180 deg rotation - cart. axis [1,1,0]                  
     i       25
          inversion                                              
     8S6     41   43   44   42   48   45   46   47
          inv. 120 deg rotation - cart. axis [-1,-1,-1]          
     3s_h    26   28   27
          inv. 180 deg rotation - cart. axis [0,0,1]             
     6S4     31   32   39   40   36   35
          inv.  90 deg rotation - cart. axis [0,0,-1]            
     6s_d    29   30   38   37   34   33
          inv. 180 deg rotation - cart. axis [1,1,0]             

   Cartesian axes

     site n.     atom                  positions (alat units)
         1           Ge  tau(   1) = (   0.0000000   0.0000000   0.0000000  )
         2           Ge  tau(   2) = (  -0.2500000   0.2500000   0.2500000  )

   Crystallographic axes

     site n.     atom                  positions (cryst. coord.)
         1           Ge  tau(   1) = (  0.0000000  0.0000000  0.0000000  )
         2           Ge  tau(   2) = (  0.2500000  0.2500000  0.2500000  )

     number of k points=   570
                       cart. coord. in units 2pi/alat
        k(    1) = (  -0.0277778   0.0277778   0.0277778), wk =   0.0006859
        k(    2) = (  -0.0833333   0.0833333  -0.0277778), wk =   0.0020576
        k(    3) = (  -0.1388889   0.1388889  -0.0833333), wk =   0.0020576
        k(    4) = (  -0.1944444   0.1944444  -0.1388889), wk =   0.0020576
        k(    5) = (  -0.2500000   0.2500000  -0.1944444), wk =   0.0020576
        k(    6) = (  -0.3055556   0.3055556  -0.2500000), wk =   0.0020576
        k(    7) = (  -0.3611111   0.3611111  -0.3055556), wk =   0.0020576
        k(    8) = (  -0.4166667   0.4166667  -0.3611111), wk =   0.0020576
        k(    9) = (  -0.4722222   0.4722222  -0.4166667), wk =   0.0020576
        k(   10) = (   0.4722222  -0.4722222   0.5277778), wk =   0.0020576
        k(   11) = (   0.4166667  -0.4166667   0.4722222), wk =   0.0020576
        k(   12) = (   0.3611111  -0.3611111   0.4166667), wk =   0.0020576
        k(   13) = (   0.3055556  -0.3055556   0.3611111), wk =   0.0020576
        k(   14) = (   0.2500000  -0.2500000   0.3055556), wk =   0.0020576
        k(   15) = (   0.1944444  -0.1944444   0.2500000), wk =   0.0020576
        k(   16) = (   0.1388889  -0.1388889   0.1944444), wk =   0.0020576
        k(   17) = (   0.0833333  -0.0833333   0.1388889), wk =   0.0020576
        k(   18) = (   0.0277778  -0.0277778   0.0833333), wk =   0.0020576
        k(   19) = (  -0.0277778   0.1388889   0.0277778), wk =   0.0020576
        k(   20) = (  -0.0833333   0.1944444  -0.0277778), wk =   0.0041152
        k(   21) = (  -0.1388889   0.2500000  -0.0833333), wk =   0.0041152
        k(   22) = (  -0.1944444   0.3055556  -0.1388889), wk =   0.0041152
        k(   23) = (  -0.2500000   0.3611111  -0.1944444), wk =   0.0041152
        k(   24) = (  -0.3055556   0.4166667  -0.2500000), wk =   0.0041152
        k(   25) = (  -0.3611111   0.4722222  -0.3055556), wk =   0.0041152
        k(   26) = (  -0.4166667   0.5277778  -0.3611111), wk =   0.0041152
        k(   27) = (   0.5277778  -0.4166667   0.5833333), wk =   0.0041152
        k(   28) = (   0.4722222  -0.3611111   0.5277778), wk =   0.0041152
        k(   29) = (   0.4166667  -0.3055556   0.4722222), wk =   0.0041152
        k(   30) = (   0.3611111  -0.2500000   0.4166667), wk =   0.0041152
        k(   31) = (   0.3055556  -0.1944444   0.3611111), wk =   0.0041152
        k(   32) = (   0.2500000  -0.1388889   0.3055556), wk =   0.0041152
        k(   33) = (   0.1944444  -0.0833333   0.2500000), wk =   0.0041152
        k(   34) = (   0.1388889  -0.0277778   0.1944444), wk =   0.0041152
        k(   35) = (   0.0833333   0.0277778   0.1388889), wk =   0.0041152
        k(   36) = (  -0.0277778   0.2500000   0.0277778), wk =   0.0020576
        k(   37) = (  -0.0833333   0.3055556  -0.0277778), wk =   0.0041152
        k(   38) = (  -0.1388889   0.3611111  -0.0833333), wk =   0.0041152
        k(   39) = (  -0.1944444   0.4166667  -0.1388889), wk =   0.0041152
        k(   40) = (  -0.2500000   0.4722222  -0.1944444), wk =   0.0041152
        k(   41) = (  -0.3055556   0.5277778  -0.2500000), wk =   0.0041152
        k(   42) = (  -0.3611111   0.5833333  -0.3055556), wk =   0.0041152
        k(   43) = (   0.5833333  -0.3611111   0.6388889), wk =   0.0041152
        k(   44) = (   0.5277778  -0.3055556   0.5833333), wk =   0.0041152
        k(   45) = (   0.4722222  -0.2500000   0.5277778), wk =   0.0041152
        k(   46) = (   0.4166667  -0.1944444   0.4722222), wk =   0.0041152
        k(   47) = (   0.3611111  -0.1388889   0.4166667), wk =   0.0041152
        k(   48) = (   0.3055556  -0.0833333   0.3611111), wk =   0.0041152
        k(   49) = (   0.2500000  -0.0277778   0.3055556), wk =   0.0041152
        k(   50) = (   0.1944444   0.0277778   0.2500000), wk =   0.0041152
        k(   51) = (   0.1388889   0.0833333   0.1944444), wk =   0.0041152
        k(   52) = (  -0.0277778   0.3611111   0.0277778), wk =   0.0020576
        k(   53) = (  -0.0833333   0.4166667  -0.0277778), wk =   0.0041152
        k(   54) = (  -0.1388889   0.4722222  -0.0833333), wk =   0.0041152
        k(   55) = (  -0.1944444   0.5277778  -0.1388889), wk =   0.0041152
        k(   56) = (  -0.2500000   0.5833333  -0.1944444), wk =   0.0041152
        k(   57) = (  -0.3055556   0.6388889  -0.2500000), wk =   0.0041152
        k(   58) = (   0.6388889  -0.3055556   0.6944444), wk =   0.0041152
        k(   59) = (   0.5833333  -0.2500000   0.6388889), wk =   0.0041152
        k(   60) = (   0.5277778  -0.1944444   0.5833333), wk =   0.0041152
        k(   61) = (   0.4722222  -0.1388889   0.5277778), wk =   0.0041152
        k(   62) = (   0.4166667  -0.0833333   0.4722222), wk =   0.0041152
        k(   63) = (   0.3611111  -0.0277778   0.4166667), wk =   0.0041152
        k(   64) = (   0.3055556   0.0277778   0.3611111), wk =   0.0041152
        k(   65) = (   0.2500000   0.0833333   0.3055556), wk =   0.0041152
        k(   66) = (   0.1944444   0.1388889   0.2500000), wk =   0.0041152
        k(   67) = (  -0.0277778   0.4722222   0.0277778), wk =   0.0020576
        k(   68) = (  -0.0833333   0.5277778  -0.0277778), wk =   0.0041152
        k(   69) = (  -0.1388889   0.5833333  -0.0833333), wk =   0.0041152
        k(   70) = (  -0.1944444   0.6388889  -0.1388889), wk =   0.0041152
        k(   71) = (  -0.2500000   0.6944444  -0.1944444), wk =   0.0041152
        k(   72) = (   0.6944444  -0.2500000   0.7500000), wk =   0.0041152
        k(   73) = (   0.6388889  -0.1944444   0.6944444), wk =   0.0041152
        k(   74) = (   0.5833333  -0.1388889   0.6388889), wk =   0.0041152
        k(   75) = (   0.5277778  -0.0833333   0.5833333), wk =   0.0041152
        k(   76) = (   0.4722222  -0.0277778   0.5277778), wk =   0.0041152
        k(   77) = (   0.4166667   0.0277778   0.4722222), wk =   0.0041152
        k(   78) = (   0.3611111   0.0833333   0.4166667), wk =   0.0041152
        k(   79) = (   0.3055556   0.1388889   0.3611111), wk =   0.0041152
        k(   80) = (   0.2500000   0.1944444   0.3055556), wk =   0.0041152
        k(   81) = (  -0.0277778   0.5833333   0.0277778), wk =   0.0020576
        k(   82) = (  -0.0833333   0.6388889  -0.0277778), wk =   0.0041152
        k(   83) = (  -0.1388889   0.6944444  -0.0833333), wk =   0.0041152
        k(   84) = (  -0.1944444   0.7500000  -0.1388889), wk =   0.0041152
        k(   85) = (   0.7500000  -0.1944444   0.8055556), wk =   0.0041152
        k(   86) = (   0.6944444  -0.1388889   0.7500000), wk =   0.0041152
        k(   87) = (   0.6388889  -0.0833333   0.6944444), wk =   0.0041152
        k(   88) = (   0.5833333  -0.0277778   0.6388889), wk =   0.0041152
        k(   89) = (   0.5277778   0.0277778   0.5833333), wk =   0.0041152
        k(   90) = (   0.4722222   0.0833333   0.5277778), wk =   0.0041152
        k(   91) = (   0.4166667   0.1388889   0.4722222), wk =   0.0041152
        k(   92) = (   0.3611111   0.1944444   0.4166667), wk =   0.0041152
        k(   93) = (   0.3055556   0.2500000   0.3611111), wk =   0.0041152
        k(   94) = (  -0.0277778   0.6944444   0.0277778), wk =   0.0020576
        k(   95) = (  -0.0833333   0.7500000  -0.0277778), wk =   0.0041152
        k(   96) = (  -0.1388889   0.8055556  -0.0833333), wk =   0.0041152
        k(   97) = (   0.8055556  -0.1388889   0.8611111), wk =   0.0041152
        k(   98) = (   0.7500000  -0.0833333   0.8055556), wk =   0.0041152
        k(   99) = (   0.6944444  -0.0277778   0.7500000), wk =   0.0041152
        k(  100) = (   0.6388889   0.0277778   0.6944444), wk =   0.0041152
        k(  101) = (   0.5833333   0.0833333   0.6388889), wk =   0.0041152
        k(  102) = (   0.5277778   0.1388889   0.5833333), wk =   0.0041152
        k(  103) = (   0.4722222   0.1944444   0.5277778), wk =   0.0041152
        k(  104) = (   0.4166667   0.2500000   0.4722222), wk =   0.0041152
        k(  105) = (   0.3611111   0.3055556   0.4166667), wk =   0.0041152
        k(  106) = (  -0.0277778   0.8055556   0.0277778), wk =   0.0020576
        k(  107) = (  -0.0833333   0.8611111  -0.0277778), wk =   0.0041152
        k(  108) = (   0.8611111  -0.0833333   0.9166667), wk =   0.0041152
        k(  109) = (   0.8055556  -0.0277778   0.8611111), wk =   0.0041152
        k(  110) = (   0.7500000   0.0277778   0.8055556), wk =   0.0041152
        k(  111) = (   0.6944444   0.0833333   0.7500000), wk =   0.0041152
        k(  112) = (   0.6388889   0.1388889   0.6944444), wk =   0.0041152
        k(  113) = (   0.5833333   0.1944444   0.6388889), wk =   0.0041152
        k(  114) = (   0.5277778   0.2500000   0.5833333), wk =   0.0041152
        k(  115) = (   0.4722222   0.3055556   0.5277778), wk =   0.0041152
        k(  116) = (   0.4166667   0.3611111   0.4722222), wk =   0.0041152
        k(  117) = (  -0.0277778   0.9166667   0.0277778), wk =   0.0020576
        k(  118) = (   0.9166667  -0.0277778   0.9722222), wk =   0.0041152
        k(  119) = (   0.8611111   0.0277778   0.9166667), wk =   0.0041152
        k(  120) = (   0.8055556   0.0833333   0.8611111), wk =   0.0041152
        k(  121) = (   0.7500000   0.1388889   0.8055556), wk =   0.0041152
        k(  122) = (   0.6944444   0.1944444   0.7500000), wk =   0.0041152
        k(  123) = (   0.6388889   0.2500000   0.6944444), wk =   0.0041152
        k(  124) = (   0.5833333   0.3055556   0.6388889), wk =   0.0041152
        k(  125) = (   0.5277778   0.3611111   0.5833333), wk =   0.0041152
        k(  126) = (   0.4722222   0.4166667   0.5277778), wk =   0.0041152
        k(  127) = (  -0.0277778  -0.9722222   0.0277778), wk =   0.0020576
        k(  128) = (  -0.0833333  -0.9166667  -0.0277778), wk =   0.0041152
        k(  129) = (  -0.1388889  -0.8611111  -0.0833333), wk =   0.0041152
        k(  130) = (  -0.1944444  -0.8055556  -0.1388889), wk =   0.0041152
        k(  131) = (  -0.2500000  -0.7500000  -0.1944444), wk =   0.0041152
        k(  132) = (  -0.3055556  -0.6944444  -0.2500000), wk =   0.0041152
        k(  133) = (  -0.3611111  -0.6388889  -0.3055556), wk =   0.0041152
        k(  134) = (  -0.4166667  -0.5833333  -0.3611111), wk =   0.0041152
        k(  135) = (  -0.0277778  -0.8611111   0.0277778), wk =   0.0020576
        k(  136) = (  -0.0833333  -0.8055556  -0.0277778), wk =   0.0041152
        k(  137) = (  -0.1388889  -0.7500000  -0.0833333), wk =   0.0041152
        k(  138) = (  -0.1944444  -0.6944444  -0.1388889), wk =   0.0041152
        k(  139) = (  -0.2500000  -0.6388889  -0.1944444), wk =   0.0041152
        k(  140) = (  -0.3055556  -0.5833333  -0.2500000), wk =   0.0041152
        k(  141) = (  -0.3611111  -0.5277778  -0.3055556), wk =   0.0041152
        k(  142) = (  -0.0277778  -0.7500000   0.0277778), wk =   0.0020576
        k(  143) = (  -0.0833333  -0.6944444  -0.0277778), wk =   0.0041152
        k(  144) = (  -0.1388889  -0.6388889  -0.0833333), wk =   0.0041152
        k(  145) = (  -0.1944444  -0.5833333  -0.1388889), wk =   0.0041152
        k(  146) = (  -0.2500000  -0.5277778  -0.1944444), wk =   0.0041152
        k(  147) = (  -0.3055556  -0.4722222  -0.2500000), wk =   0.0041152
        k(  148) = (  -0.0277778  -0.6388889   0.0277778), wk =   0.0020576
        k(  149) = (  -0.0833333  -0.5833333  -0.0277778), wk =   0.0041152
        k(  150) = (  -0.1388889  -0.5277778  -0.0833333), wk =   0.0041152
        k(  151) = (  -0.1944444  -0.4722222  -0.1388889), wk =   0.0041152
        k(  152) = (  -0.2500000  -0.4166667  -0.1944444), wk =   0.0041152
        k(  153) = (  -0.0277778  -0.5277778   0.0277778), wk =   0.0020576
        k(  154) = (  -0.0833333  -0.4722222  -0.0277778), wk =   0.0041152
        k(  155) = (  -0.1388889  -0.4166667  -0.0833333), wk =   0.0041152
        k(  156) = (  -0.1944444  -0.3611111  -0.1388889), wk =   0.0041152
        k(  157) = (  -0.0277778  -0.4166667   0.0277778), wk =   0.0020576
        k(  158) = (  -0.0833333  -0.3611111  -0.0277778), wk =   0.0041152
        k(  159) = (  -0.1388889  -0.3055556  -0.0833333), wk =   0.0041152
        k(  160) = (  -0.0277778  -0.3055556   0.0277778), wk =   0.0020576
        k(  161) = (  -0.0833333  -0.2500000  -0.0277778), wk =   0.0041152
        k(  162) = (  -0.0277778  -0.1944444   0.0277778), wk =   0.0020576
        k(  163) = (  -0.0833333   0.0833333   0.0833333), wk =   0.0006859
        k(  164) = (  -0.1388889   0.1388889   0.0277778), wk =   0.0020576
        k(  165) = (  -0.1944444   0.1944444  -0.0277778), wk =   0.0020576
        k(  166) = (  -0.2500000   0.2500000  -0.0833333), wk =   0.0020576
        k(  167) = (  -0.3055556   0.3055556  -0.1388889), wk =   0.0020576
        k(  168) = (  -0.3611111   0.3611111  -0.1944444), wk =   0.0020576
        k(  169) = (  -0.4166667   0.4166667  -0.2500000), wk =   0.0020576
        k(  170) = (  -0.4722222   0.4722222  -0.3055556), wk =   0.0020576
        k(  171) = (   0.4722222  -0.4722222   0.6388889), wk =   0.0020576
        k(  172) = (   0.4166667  -0.4166667   0.5833333), wk =   0.0020576
        k(  173) = (   0.3611111  -0.3611111   0.5277778), wk =   0.0020576
        k(  174) = (   0.3055556  -0.3055556   0.4722222), wk =   0.0020576
        k(  175) = (   0.2500000  -0.2500000   0.4166667), wk =   0.0020576
        k(  176) = (   0.1944444  -0.1944444   0.3611111), wk =   0.0020576
        k(  177) = (   0.1388889  -0.1388889   0.3055556), wk =   0.0020576
        k(  178) = (   0.0833333  -0.0833333   0.2500000), wk =   0.0020576
        k(  179) = (  -0.0833333   0.1944444   0.0833333), wk =   0.0020576
        k(  180) = (  -0.1388889   0.2500000   0.0277778), wk =   0.0041152
        k(  181) = (  -0.1944444   0.3055556  -0.0277778), wk =   0.0041152
        k(  182) = (  -0.2500000   0.3611111  -0.0833333), wk =   0.0041152
        k(  183) = (  -0.3055556   0.4166667  -0.1388889), wk =   0.0041152
        k(  184) = (  -0.3611111   0.4722222  -0.1944444), wk =   0.0041152
        k(  185) = (  -0.4166667   0.5277778  -0.2500000), wk =   0.0041152
        k(  186) = (   0.5277778  -0.4166667   0.6944444), wk =   0.0041152
        k(  187) = (   0.4722222  -0.3611111   0.6388889), wk =   0.0041152
        k(  188) = (   0.4166667  -0.3055556   0.5833333), wk =   0.0041152
        k(  189) = (   0.3611111  -0.2500000   0.5277778), wk =   0.0041152
        k(  190) = (   0.3055556  -0.1944444   0.4722222), wk =   0.0041152
        k(  191) = (   0.2500000  -0.1388889   0.4166667), wk =   0.0041152
        k(  192) = (   0.1944444  -0.0833333   0.3611111), wk =   0.0041152
        k(  193) = (   0.1388889  -0.0277778   0.3055556), wk =   0.0041152
        k(  194) = (  -0.0833333   0.3055556   0.0833333), wk =   0.0020576
        k(  195) = (  -0.1388889   0.3611111   0.0277778), wk =   0.0041152
        k(  196) = (  -0.1944444   0.4166667  -0.0277778), wk =   0.0041152
        k(  197) = (  -0.2500000   0.4722222  -0.0833333), wk =   0.0041152
        k(  198) = (  -0.3055556   0.5277778  -0.1388889), wk =   0.0041152
        k(  199) = (  -0.3611111   0.5833333  -0.1944444), wk =   0.0041152
        k(  200) = (   0.5833333  -0.3611111   0.7500000), wk =   0.0041152
        k(  201) = (   0.5277778  -0.3055556   0.6944444), wk =   0.0041152
        k(  202) = (   0.4722222  -0.2500000   0.6388889), wk =   0.0041152
        k(  203) = (   0.4166667  -0.1944444   0.5833333), wk =   0.0041152
        k(  204) = (   0.3611111  -0.1388889   0.5277778), wk =   0.0041152
        k(  205) = (   0.3055556  -0.0833333   0.4722222), wk =   0.0041152
        k(  206) = (   0.2500000  -0.0277778   0.4166667), wk =   0.0041152
        k(  207) = (   0.1944444   0.0277778   0.3611111), wk =   0.0041152
        k(  208) = (  -0.0833333   0.4166667   0.0833333), wk =   0.0020576
        k(  209) = (  -0.1388889   0.4722222   0.0277778), wk =   0.0041152
        k(  210) = (  -0.1944444   0.5277778  -0.0277778), wk =   0.0041152
        k(  211) = (  -0.2500000   0.5833333  -0.0833333), wk =   0.0041152
        k(  212) = (  -0.3055556   0.6388889  -0.1388889), wk =   0.0041152
        k(  213) = (   0.6388889  -0.3055556   0.8055556), wk =   0.0041152
        k(  214) = (   0.5833333  -0.2500000   0.7500000), wk =   0.0041152
        k(  215) = (   0.5277778  -0.1944444   0.6944444), wk =   0.0041152
        k(  216) = (   0.4722222  -0.1388889   0.6388889), wk =   0.0041152
        k(  217) = (   0.4166667  -0.0833333   0.5833333), wk =   0.0041152
        k(  218) = (   0.3611111  -0.0277778   0.5277778), wk =   0.0041152
        k(  219) = (   0.3055556   0.0277778   0.4722222), wk =   0.0041152
        k(  220) = (   0.2500000   0.0833333   0.4166667), wk =   0.0041152
        k(  221) = (  -0.0833333   0.5277778   0.0833333), wk =   0.0020576
        k(  222) = (  -0.1388889   0.5833333   0.0277778), wk =   0.0041152
        k(  223) = (  -0.1944444   0.6388889  -0.0277778), wk =   0.0041152
        k(  224) = (  -0.2500000   0.6944444  -0.0833333), wk =   0.0041152
        k(  225) = (   0.6944444  -0.2500000   0.8611111), wk =   0.0041152
        k(  226) = (   0.6388889  -0.1944444   0.8055556), wk =   0.0041152
        k(  227) = (   0.5833333  -0.1388889   0.7500000), wk =   0.0041152
        k(  228) = (   0.5277778  -0.0833333   0.6944444), wk =   0.0041152
        k(  229) = (   0.4722222  -0.0277778   0.6388889), wk =   0.0041152
        k(  230) = (   0.4166667   0.0277778   0.5833333), wk =   0.0041152
        k(  231) = (   0.3611111   0.0833333   0.5277778), wk =   0.0041152
        k(  232) = (   0.3055556   0.1388889   0.4722222), wk =   0.0041152
        k(  233) = (  -0.0833333   0.6388889   0.0833333), wk =   0.0020576
        k(  234) = (  -0.1388889   0.6944444   0.0277778), wk =   0.0041152
        k(  235) = (  -0.1944444   0.7500000  -0.0277778), wk =   0.0041152
        k(  236) = (   0.7500000  -0.1944444   0.9166667), wk =   0.0041152
        k(  237) = (   0.6944444  -0.1388889   0.8611111), wk =   0.0041152
        k(  238) = (   0.6388889  -0.0833333   0.8055556), wk =   0.0041152
        k(  239) = (   0.5833333  -0.0277778   0.7500000), wk =   0.0041152
        k(  240) = (   0.5277778   0.0277778   0.6944444), wk =   0.0041152
        k(  241) = (   0.4722222   0.0833333   0.6388889), wk =   0.0041152
        k(  242) = (   0.4166667   0.1388889   0.5833333), wk =   0.0041152
        k(  243) = (   0.3611111   0.1944444   0.5277778), wk =   0.0041152
        k(  244) = (  -0.0833333   0.7500000   0.0833333), wk =   0.0020576
        k(  245) = (  -0.1388889   0.8055556   0.0277778), wk =   0.0041152
        k(  246) = (   0.8055556  -0.1388889   0.9722222), wk =   0.0041152
        k(  247) = (   0.7500000  -0.0833333   0.9166667), wk =   0.0041152
        k(  248) = (   0.6944444  -0.0277778   0.8611111), wk =   0.0041152
        k(  249) = (   0.6388889   0.0277778   0.8055556), wk =   0.0041152
        k(  250) = (   0.5833333   0.0833333   0.7500000), wk =   0.0041152
        k(  251) = (   0.5277778   0.1388889   0.6944444), wk =   0.0041152
        k(  252) = (   0.4722222   0.1944444   0.6388889), wk =   0.0041152
        k(  253) = (   0.4166667   0.2500000   0.5833333), wk =   0.0041152
        k(  254) = (  -0.0833333   0.8611111   0.0833333), wk =   0.0020576
        k(  255) = (   0.8611111  -0.0833333   1.0277778), wk =   0.0041152
        k(  256) = (   0.8055556  -0.0277778   0.9722222), wk =   0.0041152
        k(  257) = (   0.7500000   0.0277778   0.9166667), wk =   0.0041152
        k(  258) = (   0.6944444   0.0833333   0.8611111), wk =   0.0041152
        k(  259) = (   0.6388889   0.1388889   0.8055556), wk =   0.0041152
        k(  260) = (   0.5833333   0.1944444   0.7500000), wk =   0.0041152
        k(  261) = (   0.5277778   0.2500000   0.6944444), wk =   0.0041152
        k(  262) = (   0.4722222   0.3055556   0.6388889), wk =   0.0041152
        k(  263) = (  -0.0833333  -1.0277778   0.0833333), wk =   0.0020576
        k(  264) = (  -0.1388889  -0.9722222   0.0277778), wk =   0.0041152
        k(  265) = (  -0.1944444  -0.9166667  -0.0277778), wk =   0.0041152
        k(  266) = (  -0.2500000  -0.8611111  -0.0833333), wk =   0.0041152
        k(  267) = (  -0.3055556  -0.8055556  -0.1388889), wk =   0.0041152
        k(  268) = (  -0.3611111  -0.7500000  -0.1944444), wk =   0.0041152
        k(  269) = (  -0.4166667  -0.6944444  -0.2500000), wk =   0.0041152
        k(  270) = (  -0.0833333  -0.9166667   0.0833333), wk =   0.0020576
        k(  271) = (  -0.1388889  -0.8611111   0.0277778), wk =   0.0041152
        k(  272) = (  -0.1944444  -0.8055556  -0.0277778), wk =   0.0041152
        k(  273) = (  -0.2500000  -0.7500000  -0.0833333), wk =   0.0041152
        k(  274) = (  -0.3055556  -0.6944444  -0.1388889), wk =   0.0041152
        k(  275) = (  -0.3611111  -0.6388889  -0.1944444), wk =   0.0041152
        k(  276) = (  -0.0833333  -0.8055556   0.0833333), wk =   0.0020576
        k(  277) = (  -0.1388889  -0.7500000   0.0277778), wk =   0.0041152
        k(  278) = (  -0.1944444  -0.6944444  -0.0277778), wk =   0.0041152
        k(  279) = (  -0.2500000  -0.6388889  -0.0833333), wk =   0.0041152
        k(  280) = (  -0.3055556  -0.5833333  -0.1388889), wk =   0.0041152
        k(  281) = (  -0.0833333  -0.6944444   0.0833333), wk =   0.0020576
        k(  282) = (  -0.1388889  -0.6388889   0.0277778), wk =   0.0041152
        k(  283) = (  -0.1944444  -0.5833333  -0.0277778), wk =   0.0041152
        k(  284) = (  -0.2500000  -0.5277778  -0.0833333), wk =   0.0041152
        k(  285) = (  -0.0833333  -0.5833333   0.0833333), wk =   0.0020576
        k(  286) = (  -0.1388889  -0.5277778   0.0277778), wk =   0.0041152
        k(  287) = (  -0.1944444  -0.4722222  -0.0277778), wk =   0.0041152
        k(  288) = (  -0.0833333  -0.4722222   0.0833333), wk =   0.0020576
        k(  289) = (  -0.1388889  -0.4166667   0.0277778), wk =   0.0041152
        k(  290) = (  -0.0833333  -0.3611111   0.0833333), wk =   0.0020576
        k(  291) = (  -0.1388889   0.1388889   0.1388889), wk =   0.0006859
        k(  292) = (  -0.1944444   0.1944444   0.0833333), wk =   0.0020576
        k(  293) = (  -0.2500000   0.2500000   0.0277778), wk =   0.0020576
        k(  294) = (  -0.3055556   0.3055556  -0.0277778), wk =   0.0020576
        k(  295) = (  -0.3611111   0.3611111  -0.0833333), wk =   0.0020576
        k(  296) = (  -0.4166667   0.4166667  -0.1388889), wk =   0.0020576
        k(  297) = (  -0.4722222   0.4722222  -0.1944444), wk =   0.0020576
        k(  298) = (   0.4722222  -0.4722222   0.7500000), wk =   0.0020576
        k(  299) = (   0.4166667  -0.4166667   0.6944444), wk =   0.0020576
        k(  300) = (   0.3611111  -0.3611111   0.6388889), wk =   0.0020576
        k(  301) = (   0.3055556  -0.3055556   0.5833333), wk =   0.0020576
        k(  302) = (   0.2500000  -0.2500000   0.5277778), wk =   0.0020576
        k(  303) = (   0.1944444  -0.1944444   0.4722222), wk =   0.0020576
        k(  304) = (   0.1388889  -0.1388889   0.4166667), wk =   0.0020576
        k(  305) = (  -0.1388889   0.2500000   0.1388889), wk =   0.0020576
        k(  306) = (  -0.1944444   0.3055556   0.0833333), wk =   0.0041152
        k(  307) = (  -0.2500000   0.3611111   0.0277778), wk =   0.0041152
        k(  308) = (  -0.3055556   0.4166667  -0.0277778), wk =   0.0041152
        k(  309) = (  -0.3611111   0.4722222  -0.0833333), wk =   0.0041152
        k(  310) = (  -0.4166667   0.5277778  -0.1388889), wk =   0.0041152
        k(  311) = (   0.5277778  -0.4166667   0.8055556), wk =   0.0041152
        k(  312) = (   0.4722222  -0.3611111   0.7500000), wk =   0.0041152
        k(  313) = (   0.4166667  -0.3055556   0.6944444), wk =   0.0041152
        k(  314) = (   0.3611111  -0.2500000   0.6388889), wk =   0.0041152
        k(  315) = (   0.3055556  -0.1944444   0.5833333), wk =   0.0041152
        k(  316) = (   0.2500000  -0.1388889   0.5277778), wk =   0.0041152
        k(  317) = (   0.1944444  -0.0833333   0.4722222), wk =   0.0041152
        k(  318) = (  -0.1388889   0.3611111   0.1388889), wk =   0.0020576
        k(  319) = (  -0.1944444   0.4166667   0.0833333), wk =   0.0041152
        k(  320) = (  -0.2500000   0.4722222   0.0277778), wk =   0.0041152
        k(  321) = (  -0.3055556   0.5277778  -0.0277778), wk =   0.0041152
        k(  322) = (  -0.3611111   0.5833333  -0.0833333), wk =   0.0041152
        k(  323) = (   0.5833333  -0.3611111   0.8611111), wk =   0.0041152
        k(  324) = (   0.5277778  -0.3055556   0.8055556), wk =   0.0041152
        k(  325) = (   0.4722222  -0.2500000   0.7500000), wk =   0.0041152
        k(  326) = (   0.4166667  -0.1944444   0.6944444), wk =   0.0041152
        k(  327) = (   0.3611111  -0.1388889   0.6388889), wk =   0.0041152
        k(  328) = (   0.3055556  -0.0833333   0.5833333), wk =   0.0041152
        k(  329) = (   0.2500000  -0.0277778   0.5277778), wk =   0.0041152
        k(  330) = (  -0.1388889   0.4722222   0.1388889), wk =   0.0020576
        k(  331) = (  -0.1944444   0.5277778   0.0833333), wk =   0.0041152
        k(  332) = (  -0.2500000   0.5833333   0.0277778), wk =   0.0041152
        k(  333) = (  -0.3055556   0.6388889  -0.0277778), wk =   0.0041152
        k(  334) = (   0.6388889  -0.3055556   0.9166667), wk =   0.0041152
        k(  335) = (   0.5833333  -0.2500000   0.8611111), wk =   0.0041152
        k(  336) = (   0.5277778  -0.1944444   0.8055556), wk =   0.0041152
        k(  337) = (   0.4722222  -0.1388889   0.7500000), wk =   0.0041152
        k(  338) = (   0.4166667  -0.0833333   0.6944444), wk =   0.0041152
        k(  339) = (   0.3611111  -0.0277778   0.6388889), wk =   0.0041152
        k(  340) = (   0.3055556   0.0277778   0.5833333), wk =   0.0041152
        k(  341) = (  -0.1388889   0.5833333   0.1388889), wk =   0.0020576
        k(  342) = (  -0.1944444   0.6388889   0.0833333), wk =   0.0041152
        k(  343) = (  -0.2500000   0.6944444   0.0277778), wk =   0.0041152
        k(  344) = (   0.6944444  -0.2500000   0.9722222), wk =   0.0041152
        k(  345) = (   0.6388889  -0.1944444   0.9166667), wk =   0.0041152
        k(  346) = (   0.5833333  -0.1388889   0.8611111), wk =   0.0041152
        k(  347) = (   0.5277778  -0.0833333   0.8055556), wk =   0.0041152
        k(  348) = (   0.4722222  -0.0277778   0.7500000), wk =   0.0041152
        k(  349) = (   0.4166667   0.0277778   0.6944444), wk =   0.0041152
        k(  350) = (   0.3611111   0.0833333   0.6388889), wk =   0.0041152
        k(  351) = (  -0.1388889   0.6944444   0.1388889), wk =   0.0020576
        k(  352) = (  -0.1944444   0.7500000   0.0833333), wk =   0.0041152
        k(  353) = (   0.7500000  -0.1944444   1.0277778), wk =   0.0041152
        k(  354) = (   0.6944444  -0.1388889   0.9722222), wk =   0.0041152
        k(  355) = (   0.6388889  -0.0833333   0.9166667), wk =   0.0041152
        k(  356) = (   0.5833333  -0.0277778   0.8611111), wk =   0.0041152
        k(  357) = (   0.5277778   0.0277778   0.8055556), wk =   0.0041152
        k(  358) = (   0.4722222   0.0833333   0.7500000), wk =   0.0041152
        k(  359) = (   0.4166667   0.1388889   0.6944444), wk =   0.0041152
        k(  360) = (  -0.1388889   0.8055556   0.1388889), wk =   0.0020576
        k(  361) = (   0.8055556  -0.1388889   1.0833333), wk =   0.0041152
        k(  362) = (   0.7500000  -0.0833333   1.0277778), wk =   0.0041152
        k(  363) = (   0.6944444  -0.0277778   0.9722222), wk =   0.0041152
        k(  364) = (   0.6388889   0.0277778   0.9166667), wk =   0.0041152
        k(  365) = (   0.5833333   0.0833333   0.8611111), wk =   0.0041152
        k(  366) = (   0.5277778   0.1388889   0.8055556), wk =   0.0041152
        k(  367) = (   0.4722222   0.1944444   0.7500000), wk =   0.0041152
        k(  368) = (  -0.1388889  -1.0833333   0.1388889), wk =   0.0020576
        k(  369) = (  -0.1944444  -1.0277778   0.0833333), wk =   0.0041152
        k(  370) = (  -0.2500000  -0.9722222   0.0277778), wk =   0.0041152
        k(  371) = (  -0.3055556  -0.9166667  -0.0277778), wk =   0.0041152
        k(  372) = (  -0.3611111  -0.8611111  -0.0833333), wk =   0.0041152
        k(  373) = (  -0.4166667  -0.8055556  -0.1388889), wk =   0.0041152
        k(  374) = (  -0.1388889  -0.9722222   0.1388889), wk =   0.0020576
        k(  375) = (  -0.1944444  -0.9166667   0.0833333), wk =   0.0041152
        k(  376) = (  -0.2500000  -0.8611111   0.0277778), wk =   0.0041152
        k(  377) = (  -0.3055556  -0.8055556  -0.0277778), wk =   0.0041152
        k(  378) = (  -0.3611111  -0.7500000  -0.0833333), wk =   0.0041152
        k(  379) = (  -0.1388889  -0.8611111   0.1388889), wk =   0.0020576
        k(  380) = (  -0.1944444  -0.8055556   0.0833333), wk =   0.0041152
        k(  381) = (  -0.2500000  -0.7500000   0.0277778), wk =   0.0041152
        k(  382) = (  -0.3055556  -0.6944444  -0.0277778), wk =   0.0041152
        k(  383) = (  -0.1388889  -0.7500000   0.1388889), wk =   0.0020576
        k(  384) = (  -0.1944444  -0.6944444   0.0833333), wk =   0.0041152
        k(  385) = (  -0.2500000  -0.6388889   0.0277778), wk =   0.0041152
        k(  386) = (  -0.1388889  -0.6388889   0.1388889), wk =   0.0020576
        k(  387) = (  -0.1944444  -0.5833333   0.0833333), wk =   0.0041152
        k(  388) = (  -0.1388889  -0.5277778   0.1388889), wk =   0.0020576
        k(  389) = (  -0.1944444   0.1944444   0.1944444), wk =   0.0006859
        k(  390) = (  -0.2500000   0.2500000   0.1388889), wk =   0.0020576
        k(  391) = (  -0.3055556   0.3055556   0.0833333), wk =   0.0020576
        k(  392) = (  -0.3611111   0.3611111   0.0277778), wk =   0.0020576
        k(  393) = (  -0.4166667   0.4166667  -0.0277778), wk =   0.0020576
        k(  394) = (  -0.4722222   0.4722222  -0.0833333), wk =   0.0020576
        k(  395) = (   0.4722222  -0.4722222   0.8611111), wk =   0.0020576
        k(  396) = (   0.4166667  -0.4166667   0.8055556), wk =   0.0020576
        k(  397) = (   0.3611111  -0.3611111   0.7500000), wk =   0.0020576
        k(  398) = (   0.3055556  -0.3055556   0.6944444), wk =   0.0020576
        k(  399) = (   0.2500000  -0.2500000   0.6388889), wk =   0.0020576
        k(  400) = (   0.1944444  -0.1944444   0.5833333), wk =   0.0020576
        k(  401) = (  -0.1944444   0.3055556   0.1944444), wk =   0.0020576
        k(  402) = (  -0.2500000   0.3611111   0.1388889), wk =   0.0041152
        k(  403) = (  -0.3055556   0.4166667   0.0833333), wk =   0.0041152
        k(  404) = (  -0.3611111   0.4722222   0.0277778), wk =   0.0041152
        k(  405) = (  -0.4166667   0.5277778  -0.0277778), wk =   0.0041152
        k(  406) = (   0.5277778  -0.4166667   0.9166667), wk =   0.0041152
        k(  407) = (   0.4722222  -0.3611111   0.8611111), wk =   0.0041152
        k(  408) = (   0.4166667  -0.3055556   0.8055556), wk =   0.0041152
        k(  409) = (   0.3611111  -0.2500000   0.7500000), wk =   0.0041152
        k(  410) = (   0.3055556  -0.1944444   0.6944444), wk =   0.0041152
        k(  411) = (   0.2500000  -0.1388889   0.6388889), wk =   0.0041152
        k(  412) = (  -0.1944444   0.4166667   0.1944444), wk =   0.0020576
        k(  413) = (  -0.2500000   0.4722222   0.1388889), wk =   0.0041152
        k(  414) = (  -0.3055556   0.5277778   0.0833333), wk =   0.0041152
        k(  415) = (  -0.3611111   0.5833333   0.0277778), wk =   0.0041152
        k(  416) = (   0.5833333  -0.3611111   0.9722222), wk =   0.0041152
        k(  417) = (   0.5277778  -0.3055556   0.9166667), wk =   0.0041152
        k(  418) = (   0.4722222  -0.2500000   0.8611111), wk =   0.0041152
        k(  419) = (   0.4166667  -0.1944444   0.8055556), wk =   0.0041152
        k(  420) = (   0.3611111  -0.1388889   0.7500000), wk =   0.0041152
        k(  421) = (   0.3055556  -0.0833333   0.6944444), wk =   0.0041152
        k(  422) = (  -0.1944444   0.5277778   0.1944444), wk =   0.0020576
        k(  423) = (  -0.2500000   0.5833333   0.1388889), wk =   0.0041152
        k(  424) = (  -0.3055556   0.6388889   0.0833333), wk =   0.0041152
        k(  425) = (   0.6388889  -0.3055556   1.0277778), wk =   0.0041152
        k(  426) = (   0.5833333  -0.2500000   0.9722222), wk =   0.0041152
        k(  427) = (   0.5277778  -0.1944444   0.9166667), wk =   0.0041152
        k(  428) = (   0.4722222  -0.1388889   0.8611111), wk =   0.0041152
        k(  429) = (   0.4166667  -0.0833333   0.8055556), wk =   0.0041152
        k(  430) = (   0.3611111  -0.0277778   0.7500000), wk =   0.0041152
        k(  431) = (  -0.1944444   0.6388889   0.1944444), wk =   0.0020576
        k(  432) = (  -0.2500000   0.6944444   0.1388889), wk =   0.0041152
        k(  433) = (   0.6944444  -0.2500000   1.0833333), wk =   0.0041152
        k(  434) = (   0.6388889  -0.1944444   1.0277778), wk =   0.0041152
        k(  435) = (   0.5833333  -0.1388889   0.9722222), wk =   0.0041152
        k(  436) = (   0.5277778  -0.0833333   0.9166667), wk =   0.0041152
        k(  437) = (   0.4722222  -0.0277778   0.8611111), wk =   0.0041152
        k(  438) = (   0.4166667   0.0277778   0.8055556), wk =   0.0041152
        k(  439) = (  -0.1944444   0.7500000   0.1944444), wk =   0.0020576
        k(  440) = (   0.7500000  -0.1944444   1.1388889), wk =   0.0041152
        k(  441) = (   0.6944444  -0.1388889   1.0833333), wk =   0.0041152
        k(  442) = (   0.6388889  -0.0833333   1.0277778), wk =   0.0041152
        k(  443) = (   0.5833333  -0.0277778   0.9722222), wk =   0.0041152
        k(  444) = (   0.5277778   0.0277778   0.9166667), wk =   0.0041152
        k(  445) = (   0.4722222   0.0833333   0.8611111), wk =   0.0041152
        k(  446) = (  -0.1944444  -1.1388889   0.1944444), wk =   0.0020576
        k(  447) = (  -0.2500000  -1.0833333   0.1388889), wk =   0.0041152
        k(  448) = (  -0.3055556  -1.0277778   0.0833333), wk =   0.0041152
        k(  449) = (  -0.3611111  -0.9722222   0.0277778), wk =   0.0041152
        k(  450) = (  -0.4166667  -0.9166667  -0.0277778), wk =   0.0041152
        k(  451) = (  -0.1944444  -1.0277778   0.1944444), wk =   0.0020576
        k(  452) = (  -0.2500000  -0.9722222   0.1388889), wk =   0.0041152
        k(  453) = (  -0.3055556  -0.9166667   0.0833333), wk =   0.0041152
        k(  454) = (  -0.3611111  -0.8611111   0.0277778), wk =   0.0041152
        k(  455) = (  -0.1944444  -0.9166667   0.1944444), wk =   0.0020576
        k(  456) = (  -0.2500000  -0.8611111   0.1388889), wk =   0.0041152
        k(  457) = (  -0.3055556  -0.8055556   0.0833333), wk =   0.0041152
        k(  458) = (  -0.1944444  -0.8055556   0.1944444), wk =   0.0020576
        k(  459) = (  -0.2500000  -0.7500000   0.1388889), wk =   0.0041152
        k(  460) = (  -0.1944444  -0.6944444   0.1944444), wk =   0.0020576
        k(  461) = (  -0.2500000   0.2500000   0.2500000), wk =   0.0006859
        k(  462) = (  -0.3055556   0.3055556   0.1944444), wk =   0.0020576
        k(  463) = (  -0.3611111   0.3611111   0.1388889), wk =   0.0020576
        k(  464) = (  -0.4166667   0.4166667   0.0833333), wk =   0.0020576
        k(  465) = (  -0.4722222   0.4722222   0.0277778), wk =   0.0020576
        k(  466) = (   0.4722222  -0.4722222   0.9722222), wk =   0.0020576
        k(  467) = (   0.4166667  -0.4166667   0.9166667), wk =   0.0020576
        k(  468) = (   0.3611111  -0.3611111   0.8611111), wk =   0.0020576
        k(  469) = (   0.3055556  -0.3055556   0.8055556), wk =   0.0020576
        k(  470) = (   0.2500000  -0.2500000   0.7500000), wk =   0.0020576
        k(  471) = (  -0.2500000   0.3611111   0.2500000), wk =   0.0020576
        k(  472) = (  -0.3055556   0.4166667   0.1944444), wk =   0.0041152
        k(  473) = (  -0.3611111   0.4722222   0.1388889), wk =   0.0041152
        k(  474) = (  -0.4166667   0.5277778   0.0833333), wk =   0.0041152
        k(  475) = (   0.5277778  -0.4166667   1.0277778), wk =   0.0041152
        k(  476) = (   0.4722222  -0.3611111   0.9722222), wk =   0.0041152
        k(  477) = (   0.4166667  -0.3055556   0.9166667), wk =   0.0041152
        k(  478) = (   0.3611111  -0.2500000   0.8611111), wk =   0.0041152
        k(  479) = (   0.3055556  -0.1944444   0.8055556), wk =   0.0041152
        k(  480) = (  -0.2500000   0.4722222   0.2500000), wk =   0.0020576
        k(  481) = (  -0.3055556   0.5277778   0.1944444), wk =   0.0041152
        k(  482) = (  -0.3611111   0.5833333   0.1388889), wk =   0.0041152
        k(  483) = (   0.5833333  -0.3611111   1.0833333), wk =   0.0041152
        k(  484) = (   0.5277778  -0.3055556   1.0277778), wk =   0.0041152
        k(  485) = (   0.4722222  -0.2500000   0.9722222), wk =   0.0041152
        k(  486) = (   0.4166667  -0.1944444   0.9166667), wk =   0.0041152
        k(  487) = (   0.3611111  -0.1388889   0.8611111), wk =   0.0041152
        k(  488) = (  -0.2500000   0.5833333   0.2500000), wk =   0.0020576
        k(  489) = (  -0.3055556   0.6388889   0.1944444), wk =   0.0041152
        k(  490) = (   0.6388889  -0.3055556   1.1388889), wk =   0.0041152
        k(  491) = (   0.5833333  -0.2500000   1.0833333), wk =   0.0041152
        k(  492) = (   0.5277778  -0.1944444   1.0277778), wk =   0.0041152
        k(  493) = (   0.4722222  -0.1388889   0.9722222), wk =   0.0041152
        k(  494) = (   0.4166667  -0.0833333   0.9166667), wk =   0.0041152
        k(  495) = (  -0.2500000   0.6944444   0.2500000), wk =   0.0020576
        k(  496) = (   0.6944444  -0.2500000   1.1944444), wk =   0.0041152
        k(  497) = (   0.6388889  -0.1944444   1.1388889), wk =   0.0041152
        k(  498) = (   0.5833333  -0.1388889   1.0833333), wk =   0.0041152
        k(  499) = (   0.5277778  -0.0833333   1.0277778), wk =   0.0041152
        k(  500) = (   0.4722222  -0.0277778   0.9722222), wk =   0.0041152
        k(  501) = (  -0.2500000  -1.1944444   0.2500000), wk =   0.0020576
        k(  502) = (  -0.3055556  -1.1388889   0.1944444), wk =   0.0041152
        k(  503) = (  -0.3611111  -1.0833333   0.1388889), wk =   0.0041152
        k(  504) = (  -0.4166667  -1.0277778   0.0833333), wk =   0.0041152
        k(  505) = (  -0.2500000  -1.0833333   0.2500000), wk =   0.0020576
        k(  506) = (  -0.3055556  -1.0277778   0.1944444), wk =   0.0041152
        k(  507) = (  -0.3611111  -0.9722222   0.1388889), wk =   0.0041152
        k(  508) = (  -0.2500000  -0.9722222   0.2500000), wk =   0.0020576
        k(  509) = (  -0.3055556  -0.9166667   0.1944444), wk =   0.0041152
        k(  510) = (  -0.2500000  -0.8611111   0.2500000), wk =   0.0020576
        k(  511) = (  -0.3055556   0.3055556   0.3055556), wk =   0.0006859
        k(  512) = (  -0.3611111   0.3611111   0.2500000), wk =   0.0020576
        k(  513) = (  -0.4166667   0.4166667   0.1944444), wk =   0.0020576
        k(  514) = (  -0.4722222   0.4722222   0.1388889), wk =   0.0020576
        k(  515) = (   0.4722222  -0.4722222   1.0833333), wk =   0.0020576
        k(  516) = (   0.4166667  -0.4166667   1.0277778), wk =   0.0020576
        k(  517) = (   0.3611111  -0.3611111   0.9722222), wk =   0.0020576
        k(  518) = (   0.3055556  -0.3055556   0.9166667), wk =   0.0020576
        k(  519) = (  -0.3055556   0.4166667   0.3055556), wk =   0.0020576
        k(  520) = (  -0.3611111   0.4722222   0.2500000), wk =   0.0041152
        k(  521) = (  -0.4166667   0.5277778   0.1944444), wk =   0.0041152
        k(  522) = (   0.5277778  -0.4166667   1.1388889), wk =   0.0041152
        k(  523) = (   0.4722222  -0.3611111   1.0833333), wk =   0.0041152
        k(  524) = (   0.4166667  -0.3055556   1.0277778), wk =   0.0041152
        k(  525) = (   0.3611111  -0.2500000   0.9722222), wk =   0.0041152
        k(  526) = (  -0.3055556   0.5277778   0.3055556), wk =   0.0020576
        k(  527) = (  -0.3611111   0.5833333   0.2500000), wk =   0.0041152
        k(  528) = (   0.5833333  -0.3611111   1.1944444), wk =   0.0041152
        k(  529) = (   0.5277778  -0.3055556   1.1388889), wk =   0.0041152
        k(  530) = (   0.4722222  -0.2500000   1.0833333), wk =   0.0041152
        k(  531) = (   0.4166667  -0.1944444   1.0277778), wk =   0.0041152
        k(  532) = (  -0.3055556   0.6388889   0.3055556), wk =   0.0020576
        k(  533) = (   0.6388889  -0.3055556   1.2500000), wk =   0.0041152
        k(  534) = (   0.5833333  -0.2500000   1.1944444), wk =   0.0041152
        k(  535) = (   0.5277778  -0.1944444   1.1388889), wk =   0.0041152
        k(  536) = (   0.4722222  -0.1388889   1.0833333), wk =   0.0041152
        k(  537) = (  -0.3055556  -1.2500000   0.3055556), wk =   0.0020576
        k(  538) = (  -0.3611111  -1.1944444   0.2500000), wk =   0.0041152
        k(  539) = (  -0.4166667  -1.1388889   0.1944444), wk =   0.0041152
        k(  540) = (  -0.3055556  -1.1388889   0.3055556), wk =   0.0020576
        k(  541) = (  -0.3611111  -1.0833333   0.2500000), wk =   0.0041152
        k(  542) = (  -0.3055556  -1.0277778   0.3055556), wk =   0.0020576
        k(  543) = (  -0.3611111   0.3611111   0.3611111), wk =   0.0006859
        k(  544) = (  -0.4166667   0.4166667   0.3055556), wk =   0.0020576
        k(  545) = (  -0.4722222   0.4722222   0.2500000), wk =   0.0020576
        k(  546) = (   0.4722222  -0.4722222   1.1944444), wk =   0.0020576
        k(  547) = (   0.4166667  -0.4166667   1.1388889), wk =   0.0020576
        k(  548) = (   0.3611111  -0.3611111   1.0833333), wk =   0.0020576
        k(  549) = (  -0.3611111   0.4722222   0.3611111), wk =   0.0020576
        k(  550) = (  -0.4166667   0.5277778   0.3055556), wk =   0.0041152
        k(  551) = (   0.5277778  -0.4166667   1.2500000), wk =   0.0041152
        k(  552) = (   0.4722222  -0.3611111   1.1944444), wk =   0.0041152
        k(  553) = (   0.4166667  -0.3055556   1.1388889), wk =   0.0041152
        k(  554) = (  -0.3611111   0.5833333   0.3611111), wk =   0.0020576
        k(  555) = (   0.5833333  -0.3611111   1.3055556), wk =   0.0041152
        k(  556) = (   0.5277778  -0.3055556   1.2500000), wk =   0.0041152
        k(  557) = (   0.4722222  -0.2500000   1.1944444), wk =   0.0041152
        k(  558) = (  -0.3611111  -1.3055556   0.3611111), wk =   0.0020576
        k(  559) = (  -0.4166667  -1.2500000   0.3055556), wk =   0.0041152
        k(  560) = (  -0.3611111  -1.1944444   0.3611111), wk =   0.0020576
        k(  561) = (  -0.4166667   0.4166667   0.4166667), wk =   0.0006859
        k(  562) = (  -0.4722222   0.4722222   0.3611111), wk =   0.0020576
        k(  563) = (   0.4722222  -0.4722222   1.3055556), wk =   0.0020576
        k(  564) = (   0.4166667  -0.4166667   1.2500000), wk =   0.0020576
        k(  565) = (  -0.4166667   0.5277778   0.4166667), wk =   0.0020576
        k(  566) = (   0.5277778  -0.4166667   1.3611111), wk =   0.0041152
        k(  567) = (   0.4722222  -0.3611111   1.3055556), wk =   0.0041152
        k(  568) = (  -0.4166667  -1.3611111   0.4166667), wk =   0.0020576
        k(  569) = (  -0.4722222   0.4722222   0.4722222), wk =   0.0006859
        k(  570) = (   0.4722222  -0.4722222   1.4166667), wk =   0.0020576

                       cryst. coord.
        k(    1) = (   0.0277778   0.0277778   0.0277778), wk =   0.0006859
        k(    2) = (   0.0277778   0.0277778   0.0833333), wk =   0.0020576
        k(    3) = (   0.0277778   0.0277778   0.1388889), wk =   0.0020576
        k(    4) = (   0.0277778   0.0277778   0.1944444), wk =   0.0020576
        k(    5) = (   0.0277778   0.0277778   0.2500000), wk =   0.0020576
        k(    6) = (   0.0277778   0.0277778   0.3055556), wk =   0.0020576
        k(    7) = (   0.0277778   0.0277778   0.3611111), wk =   0.0020576
        k(    8) = (   0.0277778   0.0277778   0.4166667), wk =   0.0020576
        k(    9) = (   0.0277778   0.0277778   0.4722222), wk =   0.0020576
        k(   10) = (   0.0277778   0.0277778  -0.4722222), wk =   0.0020576
        k(   11) = (   0.0277778   0.0277778  -0.4166667), wk =   0.0020576
        k(   12) = (   0.0277778   0.0277778  -0.3611111), wk =   0.0020576
        k(   13) = (   0.0277778   0.0277778  -0.3055556), wk =   0.0020576
        k(   14) = (   0.0277778   0.0277778  -0.2500000), wk =   0.0020576
        k(   15) = (   0.0277778   0.0277778  -0.1944444), wk =   0.0020576
        k(   16) = (   0.0277778   0.0277778  -0.1388889), wk =   0.0020576
        k(   17) = (   0.0277778   0.0277778  -0.0833333), wk =   0.0020576
        k(   18) = (   0.0277778   0.0277778  -0.0277778), wk =   0.0020576
        k(   19) = (   0.0277778   0.0833333   0.0833333), wk =   0.0020576
        k(   20) = (   0.0277778   0.0833333   0.1388889), wk =   0.0041152
        k(   21) = (   0.0277778   0.0833333   0.1944444), wk =   0.0041152
        k(   22) = (   0.0277778   0.0833333   0.2500000), wk =   0.0041152
        k(   23) = (   0.0277778   0.0833333   0.3055556), wk =   0.0041152
        k(   24) = (   0.0277778   0.0833333   0.3611111), wk =   0.0041152
        k(   25) = (   0.0277778   0.0833333   0.4166667), wk =   0.0041152
        k(   26) = (   0.0277778   0.0833333   0.4722222), wk =   0.0041152
        k(   27) = (   0.0277778   0.0833333  -0.4722222), wk =   0.0041152
        k(   28) = (   0.0277778   0.0833333  -0.4166667), wk =   0.0041152
        k(   29) = (   0.0277778   0.0833333  -0.3611111), wk =   0.0041152
        k(   30) = (   0.0277778   0.0833333  -0.3055556), wk =   0.0041152
        k(   31) = (   0.0277778   0.0833333  -0.2500000), wk =   0.0041152
        k(   32) = (   0.0277778   0.0833333  -0.1944444), wk =   0.0041152
        k(   33) = (   0.0277778   0.0833333  -0.1388889), wk =   0.0041152
        k(   34) = (   0.0277778   0.0833333  -0.0833333), wk =   0.0041152
        k(   35) = (   0.0277778   0.0833333  -0.0277778), wk =   0.0041152
        k(   36) = (   0.0277778   0.1388889   0.1388889), wk =   0.0020576
        k(   37) = (   0.0277778   0.1388889   0.1944444), wk =   0.0041152
        k(   38) = (   0.0277778   0.1388889   0.2500000), wk =   0.0041152
        k(   39) = (   0.0277778   0.1388889   0.3055556), wk =   0.0041152
        k(   40) = (   0.0277778   0.1388889   0.3611111), wk =   0.0041152
        k(   41) = (   0.0277778   0.1388889   0.4166667), wk =   0.0041152
        k(   42) = (   0.0277778   0.1388889   0.4722222), wk =   0.0041152
        k(   43) = (   0.0277778   0.1388889  -0.4722222), wk =   0.0041152
        k(   44) = (   0.0277778   0.1388889  -0.4166667), wk =   0.0041152
        k(   45) = (   0.0277778   0.1388889  -0.3611111), wk =   0.0041152
        k(   46) = (   0.0277778   0.1388889  -0.3055556), wk =   0.0041152
        k(   47) = (   0.0277778   0.1388889  -0.2500000), wk =   0.0041152
        k(   48) = (   0.0277778   0.1388889  -0.1944444), wk =   0.0041152
        k(   49) = (   0.0277778   0.1388889  -0.1388889), wk =   0.0041152
        k(   50) = (   0.0277778   0.1388889  -0.0833333), wk =   0.0041152
        k(   51) = (   0.0277778   0.1388889  -0.0277778), wk =   0.0041152
        k(   52) = (   0.0277778   0.1944444   0.1944444), wk =   0.0020576
        k(   53) = (   0.0277778   0.1944444   0.2500000), wk =   0.0041152
        k(   54) = (   0.0277778   0.1944444   0.3055556), wk =   0.0041152
        k(   55) = (   0.0277778   0.1944444   0.3611111), wk =   0.0041152
        k(   56) = (   0.0277778   0.1944444   0.4166667), wk =   0.0041152
        k(   57) = (   0.0277778   0.1944444   0.4722222), wk =   0.0041152
        k(   58) = (   0.0277778   0.1944444  -0.4722222), wk =   0.0041152
        k(   59) = (   0.0277778   0.1944444  -0.4166667), wk =   0.0041152
        k(   60) = (   0.0277778   0.1944444  -0.3611111), wk =   0.0041152
        k(   61) = (   0.0277778   0.1944444  -0.3055556), wk =   0.0041152
        k(   62) = (   0.0277778   0.1944444  -0.2500000), wk =   0.0041152
        k(   63) = (   0.0277778   0.1944444  -0.1944444), wk =   0.0041152
        k(   64) = (   0.0277778   0.1944444  -0.1388889), wk =   0.0041152
        k(   65) = (   0.0277778   0.1944444  -0.0833333), wk =   0.0041152
        k(   66) = (   0.0277778   0.1944444  -0.0277778), wk =   0.0041152
        k(   67) = (   0.0277778   0.2500000   0.2500000), wk =   0.0020576
        k(   68) = (   0.0277778   0.2500000   0.3055556), wk =   0.0041152
        k(   69) = (   0.0277778   0.2500000   0.3611111), wk =   0.0041152
        k(   70) = (   0.0277778   0.2500000   0.4166667), wk =   0.0041152
        k(   71) = (   0.0277778   0.2500000   0.4722222), wk =   0.0041152
        k(   72) = (   0.0277778   0.2500000  -0.4722222), wk =   0.0041152
        k(   73) = (   0.0277778   0.2500000  -0.4166667), wk =   0.0041152
        k(   74) = (   0.0277778   0.2500000  -0.3611111), wk =   0.0041152
        k(   75) = (   0.0277778   0.2500000  -0.3055556), wk =   0.0041152
        k(   76) = (   0.0277778   0.2500000  -0.2500000), wk =   0.0041152
        k(   77) = (   0.0277778   0.2500000  -0.1944444), wk =   0.0041152
        k(   78) = (   0.0277778   0.2500000  -0.1388889), wk =   0.0041152
        k(   79) = (   0.0277778   0.2500000  -0.0833333), wk =   0.0041152
        k(   80) = (   0.0277778   0.2500000  -0.0277778), wk =   0.0041152
        k(   81) = (   0.0277778   0.3055556   0.3055556), wk =   0.0020576
        k(   82) = (   0.0277778   0.3055556   0.3611111), wk =   0.0041152
        k(   83) = (   0.0277778   0.3055556   0.4166667), wk =   0.0041152
        k(   84) = (   0.0277778   0.3055556   0.4722222), wk =   0.0041152
        k(   85) = (   0.0277778   0.3055556  -0.4722222), wk =   0.0041152
        k(   86) = (   0.0277778   0.3055556  -0.4166667), wk =   0.0041152
        k(   87) = (   0.0277778   0.3055556  -0.3611111), wk =   0.0041152
        k(   88) = (   0.0277778   0.3055556  -0.3055556), wk =   0.0041152
        k(   89) = (   0.0277778   0.3055556  -0.2500000), wk =   0.0041152
        k(   90) = (   0.0277778   0.3055556  -0.1944444), wk =   0.0041152
        k(   91) = (   0.0277778   0.3055556  -0.1388889), wk =   0.0041152
        k(   92) = (   0.0277778   0.3055556  -0.0833333), wk =   0.0041152
        k(   93) = (   0.0277778   0.3055556  -0.0277778), wk =   0.0041152
        k(   94) = (   0.0277778   0.3611111   0.3611111), wk =   0.0020576
        k(   95) = (   0.0277778   0.3611111   0.4166667), wk =   0.0041152
        k(   96) = (   0.0277778   0.3611111   0.4722222), wk =   0.0041152
        k(   97) = (   0.0277778   0.3611111  -0.4722222), wk =   0.0041152
        k(   98) = (   0.0277778   0.3611111  -0.4166667), wk =   0.0041152
        k(   99) = (   0.0277778   0.3611111  -0.3611111), wk =   0.0041152
        k(  100) = (   0.0277778   0.3611111  -0.3055556), wk =   0.0041152
        k(  101) = (   0.0277778   0.3611111  -0.2500000), wk =   0.0041152
        k(  102) = (   0.0277778   0.3611111  -0.1944444), wk =   0.0041152
        k(  103) = (   0.0277778   0.3611111  -0.1388889), wk =   0.0041152
        k(  104) = (   0.0277778   0.3611111  -0.0833333), wk =   0.0041152
        k(  105) = (   0.0277778   0.3611111  -0.0277778), wk =   0.0041152
        k(  106) = (   0.0277778   0.4166667   0.4166667), wk =   0.0020576
        k(  107) = (   0.0277778   0.4166667   0.4722222), wk =   0.0041152
        k(  108) = (   0.0277778   0.4166667  -0.4722222), wk =   0.0041152
        k(  109) = (   0.0277778   0.4166667  -0.4166667), wk =   0.0041152
        k(  110) = (   0.0277778   0.4166667  -0.3611111), wk =   0.0041152
[...]
     0.0000   0.0000   0.0000   0.0000   0.0000   0.0000

          k = 0.4167-0.3056 1.1389 (  1844 PWs)   bands (ev):

    -4.4574  -2.1266   1.4266   3.2877   7.2677  10.0895  11.5097  12.0586
    13.1075  15.1729  17.4338  19.1694  21.4129  22.0752  22.8974  24.8212
    25.7044  26.2422  26.9333  27.7201  29.1067  30.3825  30.5347  30.9377
    32.8445  33.3212  34.8652  35.7816  37.2432  37.4871

     occupation numbers 
     1.0000   1.0000   1.0000   1.0000   0.0000   0.0000   0.0000   0.0000
     0.0000   0.0000   0.0000   0.0000   0.0000   0.0000   0.0000   0.0000
     0.0000   0.0000   0.0000   0.0000   0.0000   0.0000   0.0000   0.0000
     0.0000   0.0000   0.0000   0.0000   0.0000   0.0000

          k =-0.3611 0.5833 0.3611 (  1853 PWs)   bands (ev):

    -5.1350  -1.7528   3.1163   3.8381   6.7508   8.9518   9.8570  12.5562
    14.2412  16.5264  16.8602  17.0081  18.1363  21.0033  23.2043  24.7055
    26.3990  26.8437  29.0563  29.6639  30.0043  30.1374  31.4978  33.6871
    33.8355  34.4015  34.6349  35.0257  38.1868  38.3358

     occupation numbers 
     1.0000   1.0000   1.0000   1.0000   0.0000   0.0000   0.0000   0.0000
     0.0000   0.0000   0.0000   0.0000   0.0000   0.0000   0.0000   0.0000
     0.0000   0.0000   0.0000   0.0000   0.0000   0.0000   0.0000   0.0000
     0.0000   0.0000   0.0000   0.0000   0.0000   0.0000

          k = 0.5833-0.3611 1.3056 (  1846 PWs)   bands (ev):

    -4.9553  -1.8868   2.5971   3.6956   7.1202   8.9359  10.2272  12.4936
    14.4159  16.0108  16.6241  17.4757  18.9089  21.3116  23.3726  25.1283
    25.9425  27.1456  28.4314  28.5153  29.8849  30.9639  31.1632  32.5549
    32.9080  34.0977  34.4819  35.9826  36.6393  38.9304

     occupation numbers 
     1.0000   1.0000   1.0000   1.0000   0.0000   0.0000   0.0000   0.0000
     0.0000   0.0000   0.0000   0.0000   0.0000   0.0000   0.0000   0.0000
     0.0000   0.0000   0.0000   0.0000   0.0000   0.0000   0.0000   0.0000
     0.0000   0.0000   0.0000   0.0000   0.0000   0.0000

          k = 0.5278-0.3056 1.2500 (  1845 PWs)   bands (ev):

    -4.7334  -2.0052   2.0467   3.4264   7.6323   8.8435  10.8907  12.4751
    13.7470  16.1134  16.5831  17.7433  20.3343  21.7464  23.1999  25.0104
    25.9317  26.6678  27.7117  28.7081  29.4513  30.6218  30.7844  31.5627
    32.8612  33.8563  34.4792  35.4562  37.3071  38.2019

     occupation numbers 
     1.0000   1.0000   1.0000   1.0000   0.0000   0.0000   0.0000   0.0000
     0.0000   0.0000   0.0000   0.0000   0.0000   0.0000   0.0000   0.0000
     0.0000   0.0000   0.0000   0.0000   0.0000   0.0000   0.0000   0.0000
     0.0000   0.0000   0.0000   0.0000   0.0000   0.0000

          k = 0.4722-0.2500 1.1944 (  1845 PWs)   bands (ev):

    -4.4750  -2.1431   1.6103   3.0926   7.8764   9.1338  11.5787  12.1401
    13.0831  16.4761  17.1177  17.9739  21.3009  22.6317  22.9149  24.2911
    25.3324  26.9274  27.0160  28.3683  29.0899  30.0536  30.2058  31.5371
    32.6086  33.9637  34.8847  35.1970  36.6243  37.8824

     occupation numbers 
     1.0000   1.0000   1.0000   1.0000   0.0000   0.0000   0.0000   0.0000
     0.0000   0.0000   0.0000   0.0000   0.0000   0.0000   0.0000   0.0000
     0.0000   0.0000   0.0000   0.0000   0.0000   0.0000   0.0000   0.0000
     0.0000   0.0000   0.0000   0.0000   0.0000   0.0000

          k =-0.3611-1.3056 0.3611 (  1842 PWs)   bands (ev):

    -4.8295  -1.9875   2.3359   3.6339   7.0589   9.2782  10.3594  12.3344
    14.5584  16.1421  16.2870  17.8542  19.0265  21.6039  23.8449  25.1598
    25.4210  27.4427  27.9447  28.1262  29.1737  31.0426  31.9123  32.5095
    32.5561  33.5783  34.1751  35.3538  37.5430  38.1548

     occupation numbers 
     1.0000   1.0000   1.0000   1.0000   0.0000   0.0000   0.0000   0.0000
     0.0000   0.0000   0.0000   0.0000   0.0000   0.0000   0.0000   0.0000
     0.0000   0.0000   0.0000   0.0000   0.0000   0.0000   0.0000   0.0000
     0.0000   0.0000   0.0000   0.0000   0.0000   0.0000

          k =-0.4167-1.2500 0.3056 (  1845 PWs)   bands (ev):

    -4.6680  -2.0635   1.9459   3.4458   7.3015   9.3401  10.8892  12.2682
    13.9502  16.0539  16.5009  18.0465  20.1918  21.9937  23.5117  24.6837
    26.1042  26.6235  27.4282  28.1513  29.3732  30.6613  30.7543  32.2962
    32.6075  33.6516  34.0572  36.2584  36.5901  37.6324

     occupation numbers 
     1.0000   1.0000   1.0000   1.0000   0.0000   0.0000   0.0000   0.0000
     0.0000   0.0000   0.0000   0.0000   0.0000   0.0000   0.0000   0.0000
     0.0000   0.0000   0.0000   0.0000   0.0000   0.0000   0.0000   0.0000
     0.0000   0.0000   0.0000   0.0000   0.0000   0.0000

          k =-0.3611-1.1944 0.3611 (  1840 PWs)   bands (ev):

    -4.5753  -2.0966   1.6750   3.4805   7.0576  10.0351  10.9405  12.1355
    13.8736  15.2107  16.7607  19.0277  20.5319  22.3278  22.7832  25.2830
    26.0112  26.6726  26.7850  27.4204  29.7637  30.6654  30.7208  30.9047
    32.9145  34.1175  34.3402  35.8807  36.2169  38.3192

     occupation numbers 
     1.0000   1.0000   1.0000   1.0000   0.0000   0.0000   0.0000   0.0000
     0.0000   0.0000   0.0000   0.0000   0.0000   0.0000   0.0000   0.0000
     0.0000   0.0000   0.0000   0.0000   0.0000   0.0000   0.0000   0.0000
     0.0000   0.0000   0.0000   0.0000   0.0000   0.0000

          k =-0.4167 0.4167 0.4167 (  1862 PWs)   bands (ev):

    -5.3658  -1.5927   4.2058   4.2058   5.6714   9.2241   9.2241  12.7122
    14.5039  15.6829  15.6829  17.7543  19.3805  19.3805  22.7621  25.2034
    25.2034  27.5793  28.9228  30.3010  30.3010  32.6954  32.6954  33.2604
    33.2604  33.8363  35.5896  37.4077  37.4077  38.0277

     occupation numbers 
     1.0000   1.0000   1.0000   1.0000   0.0000   0.0000   0.0000   0.0000
     0.0000   0.0000   0.0000   0.0000   0.0000   0.0000   0.0000   0.0000
     0.0000   0.0000   0.0000   0.0000   0.0000   0.0000   0.0000   0.0000
     0.0000   0.0000   0.0000   0.0000   0.0000   0.0000

          k =-0.4722 0.4722 0.3611 (  1861 PWs)   bands (ev):

    -5.2361  -1.7529   3.7004   4.1870   6.0610   9.2101   9.2711  12.8269
    14.6394  15.4433  16.7606  17.1592  18.9088  19.5969  23.0982  25.1470
    26.3870  27.2982  29.1433  29.2556  30.2197  31.5839  31.9026  33.2545
    33.6555  34.1777  36.0098  36.3468  36.6471  38.1106

     occupation numbers 
     1.0000   1.0000   1.0000   1.0000   0.0000   0.0000   0.0000   0.0000
     0.0000   0.0000   0.0000   0.0000   0.0000   0.0000   0.0000   0.0000
     0.0000   0.0000   0.0000   0.0000   0.0000   0.0000   0.0000   0.0000
     0.0000   0.0000   0.0000   0.0000   0.0000   0.0000

          k = 0.4722-0.4722 1.3056 (  1854 PWs)   bands (ev):

    -5.0575  -1.8756   2.9359   4.0235   6.7021   9.1282   9.6129  13.1026
    14.6475  15.2799  15.8453  18.2099  19.3675  19.8729  23.1848  25.3906
    26.6988  27.6025  28.0486  29.4773  30.0904  30.1478  31.1217  33.1759
    33.7761  34.1877  34.6474  35.0532  38.0846  38.4263

     occupation numbers 
     1.0000   1.0000   1.0000   1.0000   0.0000   0.0000   0.0000   0.0000
     0.0000   0.0000   0.0000   0.0000   0.0000   0.0000   0.0000   0.0000
     0.0000   0.0000   0.0000   0.0000   0.0000   0.0000   0.0000   0.0000
     0.0000   0.0000   0.0000   0.0000   0.0000   0.0000

          k = 0.4167-0.4167 1.2500 (  1842 PWs)   bands (ev):

    -4.8355  -1.9773   2.2270   3.7684   7.0859   9.3431  10.1922  13.0613
    14.1086  15.1995  15.8615  18.7720  20.1938  20.7029  23.0199  25.7949
    26.2567  27.0147  28.0186  28.3424  29.4870  30.2116  31.4995  32.4355
    32.6057  33.6329  34.1585  35.6272  37.7245  38.1974

     occupation numbers 
     1.0000   1.0000   1.0000   1.0000   0.0000   0.0000   0.0000   0.0000
     0.0000   0.0000   0.0000   0.0000   0.0000   0.0000   0.0000   0.0000
     0.0000   0.0000   0.0000   0.0000   0.0000   0.0000   0.0000   0.0000
     0.0000   0.0000   0.0000   0.0000   0.0000   0.0000

          k =-0.4167 0.5278 0.4167 (  1861 PWs)   bands (ev):

    -5.1563  -1.8831   3.7772   4.0569   6.0617   9.0795   9.3927  12.7945
    14.7560  16.3309  16.8054  16.9089  18.1141  19.4896  23.5789  25.7166
    26.7073  26.8435  28.6154  29.7158  29.8097  31.6023  31.8069  32.9198
    33.6210  34.1064  36.1005  36.1335  36.6229  38.1236

     occupation numbers 
     1.0000   1.0000   1.0000   1.0000   0.0000   0.0000   0.0000   0.0000
     0.0000   0.0000   0.0000   0.0000   0.0000   0.0000   0.0000   0.0000
     0.0000   0.0000   0.0000   0.0000   0.0000   0.0000   0.0000   0.0000
     0.0000   0.0000   0.0000   0.0000   0.0000   0.0000

          k = 0.5278-0.4167 1.3611 (  1855 PWs)   bands (ev):

    -5.0322  -1.9682   3.1951   3.9652   6.5593   8.9974   9.6253  12.9993
    14.7125  15.8538  16.3898  17.5164  18.6389  19.7555  23.8391  25.8940
    26.1565  27.7225  27.7815  29.3148  30.3713  30.7219  31.3115  32.4885
    33.4492  34.2370  35.2140  35.6670  36.9567  37.7585

     occupation numbers 
     1.0000   1.0000   1.0000   1.0000   0.0000   0.0000   0.0000   0.0000
     0.0000   0.0000   0.0000   0.0000   0.0000   0.0000   0.0000   0.0000
     0.0000   0.0000   0.0000   0.0000   0.0000   0.0000   0.0000   0.0000
     0.0000   0.0000   0.0000   0.0000   0.0000   0.0000

          k = 0.4722-0.3611 1.3056 (  1849 PWs)   bands (ev):

    -4.8684  -2.0174   2.5225   3.7411   7.1085   8.9575  10.1552  13.0707
    14.2212  15.5430  16.3285  17.8073  19.7600  20.4705  23.7585  25.3190
    26.5828  26.8932  27.9787  28.9466  29.7523  30.1741  31.7663  32.2421
    32.9136  33.4144  34.3654  36.0372  36.5823  39.0785

     occupation numbers 
     1.0000   1.0000   1.0000   1.0000   0.0000   0.0000   0.0000   0.0000
     0.0000   0.0000   0.0000   0.0000   0.0000   0.0000   0.0000   0.0000
     0.0000   0.0000   0.0000   0.0000   0.0000   0.0000   0.0000   0.0000
     0.0000   0.0000   0.0000   0.0000   0.0000   0.0000

          k =-0.4167-1.3611 0.4167 (  1853 PWs)   bands (ev):

    -4.9682  -2.0141   2.9950   3.9029   6.7005   9.0254   9.7274  13.0266
    14.6778  15.8355  16.3294  17.6292  18.6980  19.9804  24.1376  25.5650
    26.3496  27.2354  28.1574  29.0698  30.2821  30.3893  31.5270  32.2904
    33.7702  34.1318  34.5246  34.9311  38.0113  38.3541

     occupation numbers 
     1.0000   1.0000   1.0000   1.0000   0.0000   0.0000   0.0000   0.0000
     0.0000   0.0000   0.0000   0.0000   0.0000   0.0000   0.0000   0.0000
     0.0000   0.0000   0.0000   0.0000   0.0000   0.0000   0.0000   0.0000
     0.0000   0.0000   0.0000   0.0000   0.0000   0.0000

          k =-0.4722 0.4722 0.4722 (  1865 PWs)   bands (ev):

    -5.1332  -1.9776   4.1544   4.1544   5.6179   9.2017   9.2017  12.6441
    15.6087  16.6050  16.6050  16.8121  18.2176  18.2176  24.0288  26.3998
    26.8387  26.8387  28.5526  28.5526  30.1312  32.0347  32.8664  32.8664
    33.3202  33.3202  35.8109  37.1207  37.1207  38.1002

     occupation numbers 
     1.0000   1.0000   1.0000   1.0000   0.0000   0.0000   0.0000   0.0000
     0.0000   0.0000   0.0000   0.0000   0.0000   0.0000   0.0000   0.0000
     0.0000   0.0000   0.0000   0.0000   0.0000   0.0000   0.0000   0.0000
     0.0000   0.0000   0.0000   0.0000   0.0000   0.0000

          k = 0.4722-0.4722 1.4167 (  1858 PWs)   bands (ev):

    -5.0697  -2.0198   3.7110   4.0958   6.0351   9.1312   9.3208  12.8069
    15.6030  15.9511  16.4393  17.3578  18.4201  18.4878  24.2692  25.9733
    26.8517  27.4019  28.0399  28.5132  30.7148  31.6861  31.7346  31.9523
    33.7147  34.1186  35.8913  36.1197  36.7077  37.9495

     occupation numbers 
     1.0000   1.0000   1.0000   1.0000   0.0000   0.0000   0.0000   0.0000
     0.0000   0.0000   0.0000   0.0000   0.0000   0.0000   0.0000   0.0000
     0.0000   0.0000   0.0000   0.0000   0.0000   0.0000   0.0000   0.0000
     0.0000   0.0000   0.0000   0.0000   0.0000   0.0000

     highest occupied, lowest unoccupied level (ev):     5.4893    5.6179

!    total energy              =    -322.02117052 Ry
     Harris-Foulkes estimate   =    -322.02117052 Ry
     estimated scf accuracy    <          1.1E-13 Ry

     total all-electron energy =     -8389.902552 Ry

     The total energy is the sum of the following terms:

     one-electron contribution =       5.43352870 Ry
     hartree contribution      =       1.15593464 Ry
     xc contribution           =     -13.17161457 Ry
     ewald contribution        =     -16.04258145 Ry
     one-center paw contrib.   =    -299.39643784 Ry
      -> PAW hartree energy AE =       4.38803139 Ry
      -> PAW hartree energy PS =      -4.38348514 Ry
      -> PAW xc energy AE      =    -155.84191383 Ry
      -> PAW xc energy PS      =       6.13914866 Ry
      -> total E_H with PAW    =       1.16048089 Ry
      -> total E_XC with PAW   =    -162.87437974 Ry

     convergence has been achieved in   7 iterations

     Forces acting on atoms (cartesian axes, Ry/au):

     atom    1 type  1   force =     0.00000000    0.00000000   -0.00000000
     atom    2 type  1   force =     0.00000000   -0.00000000    0.00000000
     The non-local contrib.  to forces
     atom    1 type  1   force =    -0.00000000    0.00000000   -0.00000000
     atom    2 type  1   force =    -0.00000000    0.00000000    0.00000000
     The ionic contribution  to forces
     atom    1 type  1   force =     0.00000000   -0.00000000   -0.00000000
     atom    2 type  1   force =    -0.00000000    0.00000000    0.00000000
     The local contribution  to forces
     atom    1 type  1   force =    -0.00000000    0.00000000    0.00000000
     atom    2 type  1   force =     0.00000000    0.00000000   -0.00000000
     The core correction contribution to forces
     atom    1 type  1   force =     0.00000000   -0.00000000    0.00000000
     atom    2 type  1   force =     0.00000000    0.00000000   -0.00000000
     The Hubbard contrib.    to forces
     atom    1 type  1   force =     0.00000000    0.00000000    0.00000000
     atom    2 type  1   force =     0.00000000    0.00000000    0.00000000
     The SCF correction term to forces
     atom    1 type  1   force =     0.00000000    0.00000000   -0.00000000
     atom    2 type  1   force =    -0.00000000   -0.00000000    0.00000000

     Total force =     0.000000     Total SCF correction =     0.000000


     Computing stress (Cartesian axis) and pressure

          total   stress  (Ry/bohr**3)                   (kbar)     P=       -0.03
  -0.00000018  -0.00000000  -0.00000000           -0.03       -0.00       -0.00
  -0.00000000  -0.00000018   0.00000000           -0.00       -0.03        0.00
  -0.00000000   0.00000000  -0.00000018           -0.00        0.00       -0.03

     kinetic stress (kbar)   1850.76     -0.00      0.00
                                0.00   1850.76     -0.00
                                0.00     -0.00   1850.76

     local   stress (kbar)    842.35     -0.00      0.00
                               -0.00    842.35      0.00
                                0.00      0.00    842.35

     nonloc. stress (kbar)    773.92     -0.00      0.00
                               -0.00    773.92      0.00
                               -0.00     -0.00    773.92

     hartree stress (kbar)    182.76     -0.00     -0.00
                               -0.00    182.76      0.00
                               -0.00      0.00    182.76

     exc-cor stress (kbar)   2968.41      0.00     -0.00
                                0.00   2968.41      0.00
                               -0.00      0.00   2968.41

     corecor stress (kbar)  -4081.82      0.00     -0.00
                                0.00  -4081.82     -0.00
                               -0.00     -0.00  -4081.82

     ewald   stress (kbar)  -2536.42     -0.00     -0.00
                               -0.00  -2536.42      0.00
                               -0.00      0.00  -2536.42

     hubbard stress (kbar)      0.00      0.00      0.00
                                0.00      0.00      0.00
                                0.00      0.00      0.00

     london  stress (kbar)      0.00      0.00      0.00
                                0.00      0.00      0.00
                                0.00      0.00      0.00

     DFT-D3  stress (kbar)      0.00      0.00      0.00
                                0.00      0.00      0.00
                                0.00      0.00      0.00

     XDM     stress (kbar)      0.00      0.00      0.00
                                0.00      0.00      0.00
                                0.00      0.00      0.00

     dft-nl  stress (kbar)      0.00      0.00      0.00
                                0.00      0.00      0.00
                                0.00      0.00      0.00

     TS-vdW  stress (kbar)      0.00      0.00      0.00
                                0.00      0.00      0.00
                                0.00      0.00      0.00



     Writing output data file ./temp/Ge.save/

     init_run     :      0.49s CPU      1.57s WALL (       1 calls)
     electrons    :      5.06s CPU      5.37s WALL (       1 calls)
     forces       :      0.04s CPU      0.05s WALL (       1 calls)
     stress       :      0.10s CPU      0.11s WALL (       1 calls)

     Called by init_run:
     wfcinit      :      0.16s CPU      0.29s WALL (       1 calls)
     wfcinit:atom :      0.00s CPU      0.00s WALL (       5 calls)
     wfcinit:wfcr :      0.14s CPU      0.21s WALL (       5 calls)
     potinit      :      0.07s CPU      0.87s WALL (       1 calls)
     hinit0       :      0.21s CPU      0.33s WALL (       1 calls)

     Called by electrons:
     c_bands      :      3.74s CPU      3.87s WALL (       8 calls)
     sum_band     :      0.75s CPU      0.78s WALL (       8 calls)
     v_of_rho     :      0.17s CPU      0.21s WALL (       8 calls)
     v_h          :      0.00s CPU      0.00s WALL (       8 calls)
     v_xc         :      0.21s CPU      0.25s WALL (      10 calls)
     newd         :      0.01s CPU      0.02s WALL (       8 calls)
     PAW_pot      :      0.26s CPU      0.36s WALL (       8 calls)
     mix_rho      :      0.02s CPU      0.03s WALL (       8 calls)

     Called by c_bands:
     init_us_2    :      0.03s CPU      0.03s WALL (      95 calls)
     cegterg      :      3.28s CPU      3.41s WALL (      40 calls)

     Called by sum_band:
     sum_band:bec :      0.00s CPU      0.00s WALL (      40 calls)
     addusdens    :      0.03s CPU      0.03s WALL (       8 calls)

     Called by *egterg:
     h_psi        :      2.77s CPU      2.83s WALL (     154 calls)
     s_psi        :      0.02s CPU      0.03s WALL (     154 calls)
     g_psi        :      0.01s CPU      0.01s WALL (     109 calls)
     cdiaghg      :      0.18s CPU      0.29s WALL (     144 calls)
     cegterg:over :      0.15s CPU      0.15s WALL (     109 calls)
     cegterg:upda :      0.11s CPU      0.11s WALL (     109 calls)
     cegterg:last :      0.09s CPU      0.09s WALL (      45 calls)

     Called by h_psi:
     h_psi:calbec :      0.03s CPU      0.03s WALL (     154 calls)
     vloc_psi     :      2.70s CPU      2.74s WALL (     154 calls)
     add_vuspsi   :      0.03s CPU      0.03s WALL (     154 calls)

     General routines
     calbec       :      0.05s CPU      0.05s WALL (     219 calls)
     fft          :      0.05s CPU      0.20s WALL (     114 calls)
     ffts         :      0.00s CPU      0.00s WALL (       8 calls)
     fftw         :      2.99s CPU      3.03s WALL (    7256 calls)

     Parallel routines

     PAW routines
     PAW_pot      :      0.26s CPU      0.36s WALL (       8 calls)
     PAW_symme    :      0.00s CPU      0.00s WALL (      16 calls)

     PWSCF        :      7.44s CPU     10.70s WALL


   This run was terminated on:  14: 0:18   4Feb2022            

=------------------------------------------------------------------------------=
   JOB DONE.
=------------------------------------------------------------------------------=
