
     Program PHONON v.6.6 starts on 16Oct2022 at 10: 8: 7 

     This program is part of the open-source Quantum ESPRESSO suite
     for quantum simulation of materials; please cite
         "P. Giannozzi et al., J. Phys.:Condens. Matter 21 395502 (2009);
         "P. Giannozzi et al., J. Phys.:Condens. Matter 29 465901 (2017);
          URL http://www.quantum-espresso.org", 
     in publications or presentations arising from this work. More details at
     http://www.quantum-espresso.org/quote

     Parallel version (MPI), running on    96 processors

     MPI processes distributed on     4 nodes
     K-points division:     npool     =      96
     Fft bands division:     nmany     =       1

     Reading xml data from directory:

     ./ge.save/

     IMPORTANT: XC functional enforced from input :
     Exchange-correlation= PBESOL
                           (   1   4  10   8   0   0   0)
     Any further DFT definition will be discarded
     Please, verify this is what you really want

 
     G-vector sticks info
     --------------------
     sticks:   dense  smooth     PW     G-vecs:    dense   smooth      PW
     Sum        1045    1045    313                22419    22419    3695
 
     Reading collected, re-writing distributed wavefunctions


     Dynamical matrices for ( 6, 6, 6)  uniform grid of q-points
     (  16 q-points):
       N         xq(1)         xq(2)         xq(3) 
       1   0.000000000   0.000000000   0.000000000
       2  -0.166666667   0.166666667  -0.166666667
       3  -0.333333333   0.333333333  -0.333333333
       4   0.500000000  -0.500000000   0.500000000
       5   0.000000000   0.333333333   0.000000000
       6  -0.166666667   0.500000000  -0.166666667
       7   0.666666667  -0.333333333   0.666666667
       8   0.500000000  -0.166666667   0.500000000
       9   0.333333333   0.000000000   0.333333333
      10   0.000000000   0.666666667   0.000000000
      11   0.833333333  -0.166666667   0.833333333
      12   0.666666667  -0.000000000   0.666666667
      13   0.000000000  -1.000000000   0.000000000
      14   0.666666667  -0.333333333   1.000000000
      15   0.500000000  -0.166666667   0.833333333
      16  -0.333333333  -1.000000000   0.000000000

     Saving dvscf to file. Distribute only q points, not irreducible represetations.

     Calculation of q =    0.0000000   0.0000000   0.0000000

     phonon                                                                     

     bravais-lattice index     =            2
     lattice parameter (alat)  =      10.7466  a.u.
     unit-cell volume          =     310.2790 (a.u.)^3
     number of atoms/cell      =            2
     number of atomic types    =            1
     kinetic-energy cut-off    =      66.0000  Ry
     charge density cut-off    =     264.0000  Ry
     convergence threshold     =      1.0E-22
     beta                      =       0.7000
     number of iterations used =            4
     Exchange-correlation= PBESOL
                           (   1   4  10   8   0   0   0)


     celldm(1)=   10.74659  celldm(2)=    0.00000  celldm(3)=    0.00000
     celldm(4)=    0.00000  celldm(5)=    0.00000  celldm(6)=    0.00000

     crystal axes: (cart. coord. in units of alat)
               a(1) = ( -0.5000  0.0000  0.5000 )  
               a(2) = (  0.0000  0.5000  0.5000 )  
               a(3) = ( -0.5000  0.5000  0.0000 )  

     reciprocal axes: (cart. coord. in units 2 pi/alat)
               b(1) = ( -1.0000 -1.0000  1.0000 )  
               b(2) = (  1.0000  1.0000  1.0000 )  
               b(3) = ( -1.0000  1.0000 -1.0000 )  


     Atoms inside the unit cell: 

     Cartesian axes

     site n.  atom      mass           positions (alat units)
        1     Ge  72.6400   tau(    1) = (    0.00000    0.00000    0.00000  )
        2     Ge  72.6400   tau(    2) = (   -0.25000    0.25000    0.25000  )

     Computing dynamical matrix for 
                    q = (   0.0000000   0.0000000   0.0000000 )
 
     49 Sym.Ops. (with q -> -q+G )


     G cutoff =  772.2996  (  22419 G-vectors)     FFT grid: ( 40, 40, 40)

     number of k points=   145  Gaussian smearing, width (Ry)=  0.0200

     PseudoPot. # 1 for Ge read from file:
     /scratch1/fanchem/Ge/pp/Ge.pbesol-n-kjpaw_psl.1.0.0.UPF
     MD5 check sum: ba6169c2b85c6e6c9360c21392c70c8c
     Pseudo is Projector augmented-wave + core cor, Zval =  4.0
     Generated using "atomic" code by A. Dal Corso v.6.3
     Shape of augmentation charge: PSQ
     Using radial grid of 1207 points,  4 beta functions with: 
                l(1) =   0
                l(2) =   0
                l(3) =   1
                l(4) =   1
     Q(r) pseudized with 0 coefficients 


     Mode symmetry, O_h (m-3m)  point group:


     Atomic displacements:
     There are    2 irreducible representations

     Representation     1      3 modes -  To be done

     Representation     2      3 modes -  To be done



     Alpha used in Ewald sum =   2.8000
     PHONON       :      2.93s CPU      5.69s WALL



     Representation #   1 modes #   1   2   3

     Self-consistent Calculation
 
     Pert. #  1: Fermi energy shift (Ry) =    -1.9516E-18    -2.2959E-39
     Pert. #  2: Fermi energy shift (Ry) =     1.8793E-18     1.2245E-40
     Pert. #  3: Fermi energy shift (Ry) =     0.0000E+00     1.5306E-39

      iter #   1 total cpu time :     6.8 secs   av.it.:   4.1
      thresh= 1.000E-02 alpha_mix =  0.700 |ddv_scf|^2 =  8.764E-09
 
     Pert. #  1: Fermi energy shift (Ry) =    -4.6801E-18    -3.3482E-41
     Pert. #  2: Fermi energy shift (Ry) =     0.0000E+00     2.2959E-41
     Pert. #  3: Fermi energy shift (Ry) =     1.3733E-18    -5.3571E-41

      iter #   2 total cpu time :     8.3 secs   av.it.:   9.0
      thresh= 9.362E-06 alpha_mix =  0.700 |ddv_scf|^2 =  3.441E-10
 
     Pert. #  1: Fermi energy shift (Ry) =    -2.3852E-18     4.9625E-42
     Pert. #  2: Fermi energy shift (Ry) =     4.1922E-18    -5.0223E-42
     Pert. #  3: Fermi energy shift (Ry) =     0.0000E+00     3.3960E-41

      iter #   3 total cpu time :    10.0 secs   av.it.:   9.2
      thresh= 1.855E-06 alpha_mix =  0.700 |ddv_scf|^2 =  2.221E-11
 
     Pert. #  1: Fermi energy shift (Ry) =    -3.3430E-18     7.6530E-42
     Pert. #  2: Fermi energy shift (Ry) =    -2.7466E-18    -1.0523E-41
     Pert. #  3: Fermi energy shift (Ry) =    -2.8912E-19     2.6785E-41

      iter #   4 total cpu time :    11.7 secs   av.it.:   8.9
      thresh= 4.713E-07 alpha_mix =  0.700 |ddv_scf|^2 =  9.209E-13
 
     Pert. #  1: Fermi energy shift (Ry) =    -2.6021E-18    -1.0762E-42
     Pert. #  2: Fermi energy shift (Ry) =     2.3130E-18    -1.4349E-42
     Pert. #  3: Fermi energy shift (Ry) =     8.6736E-19     2.5111E-41

      iter #   5 total cpu time :    13.3 secs   av.it.:   8.7
      thresh= 9.596E-08 alpha_mix =  0.700 |ddv_scf|^2 =  3.921E-15
 
     Pert. #  1: Fermi energy shift (Ry) =    -5.9631E-19     2.1524E-42
     Pert. #  2: Fermi energy shift (Ry) =    -4.1922E-18     5.2614E-42
     Pert. #  3: Fermi energy shift (Ry) =     6.5052E-19     3.2525E-41

      iter #   6 total cpu time :    14.9 secs   av.it.:   8.9
      thresh= 6.262E-09 alpha_mix =  0.700 |ddv_scf|^2 =  2.514E-17
 
     Pert. #  1: Fermi energy shift (Ry) =    -2.7466E-18     6.3376E-42
     Pert. #  2: Fermi energy shift (Ry) =    -5.7824E-19    -3.3482E-41
     Pert. #  3: Fermi energy shift (Ry) =     5.0596E-19     2.6785E-41

      iter #   7 total cpu time :    16.5 secs   av.it.:   8.3
      thresh= 5.014E-10 alpha_mix =  0.700 |ddv_scf|^2 =  2.689E-18
 
     Pert. #  1: Fermi energy shift (Ry) =    -6.0896E-18     4.4244E-42
     Pert. #  2: Fermi energy shift (Ry) =     1.8793E-18    -2.3915E-41
     Pert. #  3: Fermi energy shift (Ry) =     1.0842E-18     3.4438E-41

      iter #   8 total cpu time :    18.0 secs   av.it.:   8.5
      thresh= 1.640E-10 alpha_mix =  0.700 |ddv_scf|^2 =  2.767E-21
 
     Pert. #  1: Fermi energy shift (Ry) =    -1.3191E-18     4.4244E-42
     Pert. #  2: Fermi energy shift (Ry) =    -3.9031E-18    -2.3915E-41
     Pert. #  3: Fermi energy shift (Ry) =     1.3733E-18     3.4438E-41

      iter #   9 total cpu time :    19.2 secs   av.it.:   9.0
      thresh= 5.260E-12 alpha_mix =  0.700 |ddv_scf|^2 =  5.926E-23

     End of self-consistent calculation

     Convergence has been achieved 


     Representation #   2 modes #   4   5   6

     Self-consistent Calculation
 
     Pert. #  1: Fermi energy shift (Ry) =     1.2063E-25    -1.6049E-35
     Pert. #  2: Fermi energy shift (Ry) =    -1.8956E-25    -1.0031E-35
     Pert. #  3: Fermi energy shift (Ry) =     3.4466E-26    -2.0062E-36

      iter #   1 total cpu time :    21.1 secs   av.it.:   4.2
      thresh= 1.000E-02 alpha_mix =  0.700 |ddv_scf|^2 =  9.102E-09
 
     Pert. #  1: Fermi energy shift (Ry) =     2.1541E-25     6.3673E-39
     Pert. #  2: Fermi energy shift (Ry) =     4.2652E-25    -1.0286E-38
     Pert. #  3: Fermi energy shift (Ry) =     1.3786E-25    -4.8979E-40

      iter #   2 total cpu time :    22.6 secs   av.it.:   9.2
      thresh= 9.541E-06 alpha_mix =  0.700 |ddv_scf|^2 =  3.929E-10
 
     Pert. #  1: Fermi energy shift (Ry) =     3.3604E-25     1.7143E-39
     Pert. #  2: Fermi energy shift (Ry) =     5.4284E-25    -2.1428E-39
     Pert. #  3: Fermi energy shift (Ry) =    -1.0340E-25    -1.4694E-39

      iter #   3 total cpu time :    24.3 secs   av.it.:   9.3
      thresh= 1.982E-06 alpha_mix =  0.700 |ddv_scf|^2 =  1.797E-11
 
     Pert. #  1: Fermi energy shift (Ry) =     1.6371E-25     1.5306E-40
     Pert. #  2: Fermi energy shift (Ry) =    -3.0158E-25     2.4489E-40
     Pert. #  3: Fermi energy shift (Ry) =    -1.3786E-25    -6.1224E-41

      iter #   4 total cpu time :    25.8 secs   av.it.:   8.8
      thresh= 4.239E-07 alpha_mix =  0.700 |ddv_scf|^2 =  9.275E-13
 
     Pert. #  1: Fermi energy shift (Ry) =     6.8932E-26     1.4388E-39
     Pert. #  2: Fermi energy shift (Ry) =    -7.3240E-26     1.5306E-40
     Pert. #  3: Fermi energy shift (Ry) =     1.7233E-25    -3.0612E-41

      iter #   5 total cpu time :    27.4 secs   av.it.:   8.5
      thresh= 9.631E-08 alpha_mix =  0.700 |ddv_scf|^2 =  1.906E-15
 
     Pert. #  1: Fermi energy shift (Ry) =     1.6371E-25     8.2652E-40
     Pert. #  2: Fermi energy shift (Ry) =     1.5940E-25     1.2321E-39
     Pert. #  3: Fermi energy shift (Ry) =     3.4466E-25     3.0612E-40

      iter #   6 total cpu time :    28.9 secs   av.it.:   9.0
      thresh= 4.365E-09 alpha_mix =  0.700 |ddv_scf|^2 =  5.488E-17
 
     Pert. #  1: Fermi energy shift (Ry) =     1.8095E-25     8.2652E-40
     Pert. #  2: Fermi energy shift (Ry) =     3.0588E-25     1.2321E-39
     Pert. #  3: Fermi energy shift (Ry) =     3.4466E-26     3.0612E-40

      iter #   7 total cpu time :    30.6 secs   av.it.:   9.1
      thresh= 7.408E-10 alpha_mix =  0.700 |ddv_scf|^2 =  1.032E-18
 
     Pert. #  1: Fermi energy shift (Ry) =     2.8434E-25     8.2652E-40
     Pert. #  2: Fermi energy shift (Ry) =     9.4781E-26     1.2321E-39
     Pert. #  3: Fermi energy shift (Ry) =    -6.8932E-26     3.0612E-40

      iter #   8 total cpu time :    32.1 secs   av.it.:   8.6
      thresh= 1.016E-10 alpha_mix =  0.700 |ddv_scf|^2 =  6.543E-20
 
     Pert. #  1: Fermi energy shift (Ry) =     1.1201E-25     8.2652E-40
     Pert. #  2: Fermi energy shift (Ry) =     1.9387E-25     1.2321E-39
     Pert. #  3: Fermi energy shift (Ry) =     1.7233E-25     3.0612E-40

      iter #   9 total cpu time :    33.5 secs   av.it.:   8.7
      thresh= 2.558E-11 alpha_mix =  0.700 |ddv_scf|^2 =  7.476E-22
 
     Pert. #  1: Fermi energy shift (Ry) =     1.6371E-25     8.2652E-40
     Pert. #  2: Fermi energy shift (Ry) =     3.8343E-25     1.2321E-39
     Pert. #  3: Fermi energy shift (Ry) =     1.7233E-25     3.0612E-40

      iter #  10 total cpu time :    34.8 secs   av.it.:   9.4
      thresh= 2.734E-12 alpha_mix =  0.700 |ddv_scf|^2 =  1.464E-23

     End of self-consistent calculation

     Convergence has been achieved 
 
     Number of q in the star =    1
     List of q in the star:
          1   0.000000000   0.000000000   0.000000000

     Diagonalizing the dynamical matrix

     q = (    0.000000000   0.000000000   0.000000000 ) 

 **************************************************************************
     freq (    1) =      -0.128596 [THz] =      -4.289489 [cm-1]
     freq (    2) =      -0.128596 [THz] =      -4.289489 [cm-1]
     freq (    3) =      -0.128596 [THz] =      -4.289489 [cm-1]
     freq (    4) =       8.627328 [THz] =     287.776674 [cm-1]
     freq (    5) =       8.627328 [THz] =     287.776674 [cm-1]
     freq (    6) =       8.627328 [THz] =     287.776674 [cm-1]
 **************************************************************************

     Mode symmetry, O_h (m-3m)  point group:

     freq (   1-   3) =         -4.3  [cm-1]   --> T_1u G_15  G_4- I  
     freq (   4-   6) =        287.8  [cm-1]   --> T_2g G_25' G_5+ R  

     Calculation of q =   -0.1666667   0.1666667  -0.1666667

     Subspace diagonalization in iterative solution of the eigenvalue problem:
     a serial algorithm will be used

 
     G-vector sticks info
     --------------------
     sticks:   dense  smooth     PW     G-vecs:    dense   smooth      PW
     Sum        1045    1045    313                22419    22419    3839
 

     Title: 
     phonon                                                                     


     bravais-lattice index     =            2
     lattice parameter (alat)  =      10.7466  a.u.
     unit-cell volume          =     310.2790 (a.u.)^3
     number of atoms/cell      =            2
     number of atomic types    =            1
     number of electrons       =         8.00
     number of Kohn-Sham states=            8
     kinetic-energy cutoff     =      66.0000  Ry
     charge density cutoff     =     264.0000  Ry
     Exchange-correlation= PBESOL
                           (   1   4  10   8   0   0   0)

     celldm(1)=  10.746593  celldm(2)=   0.000000  celldm(3)=   0.000000
     celldm(4)=   0.000000  celldm(5)=   0.000000  celldm(6)=   0.000000

     crystal axes: (cart. coord. in units of alat)
               a(1) = (  -0.500000   0.000000   0.500000 )  
               a(2) = (   0.000000   0.500000   0.500000 )  
               a(3) = (  -0.500000   0.500000   0.000000 )  

     reciprocal axes: (cart. coord. in units 2 pi/alat)
               b(1) = ( -1.000000 -1.000000  1.000000 )  
               b(2) = (  1.000000  1.000000  1.000000 )  
               b(3) = ( -1.000000  1.000000 -1.000000 )  


     PseudoPot. # 1 for Ge read from file:
     /scratch1/fanchem/Ge/pp/Ge.pbesol-n-kjpaw_psl.1.0.0.UPF
     MD5 check sum: ba6169c2b85c6e6c9360c21392c70c8c
     Pseudo is Projector augmented-wave + core cor, Zval =  4.0
     Generated using "atomic" code by A. Dal Corso v.6.3
     Shape of augmentation charge: PSQ
     Using radial grid of 1207 points,  4 beta functions with: 
                l(1) =   0
                l(2) =   0
                l(3) =   1
                l(4) =   1
     Q(r) pseudized with 0 coefficients 


     atomic species   valence    mass     pseudopotential
        Ge             4.00    72.64000     Ge( 1.00)

     48 Sym. Ops., with inversion, found



   Cartesian axes

     site n.     atom                  positions (alat units)
         1           Ge  tau(   1) = (   0.0000000   0.0000000   0.0000000  )
         2           Ge  tau(   2) = (  -0.2500000   0.2500000   0.2500000  )

     number of k points=  1632  Gaussian smearing, width (Ry)=  0.0200

     Number of k-points >= 100: set verbosity='high' to print them.

     Dense  grid:    22419 G-vectors     FFT dimensions: (  40,  40,  40)

     Estimated max dynamical RAM per process >      12.98 MB

     Estimated total dynamical RAM >       1.22 GB

     The potential is recalculated from file :
     ./_ph0/ge.q_2/ge.save/charge-density

     Starting wfcs are    8 atomic wfcs
     Checking if some PAW data can be deallocated... 

     Band Structure Calculation
     Davidson diagonalization with overlap

     ethr =  1.25E-10,  avg # of iterations = 15.1

     total cpu time spent up to now is        4.1 secs

     End of band structure calculation

     Number of k-points >= 100: set verbosity='high' to print the bands.

     the Fermi energy is     5.5827 ev

     Writing output data file ./_ph0/ge.q_2/ge.save/

     phonon                                                                     

     bravais-lattice index     =            2
     lattice parameter (alat)  =      10.7466  a.u.
     unit-cell volume          =     310.2790 (a.u.)^3
     number of atoms/cell      =            2
     number of atomic types    =            1
     kinetic-energy cut-off    =      66.0000  Ry
     charge density cut-off    =     264.0000  Ry
     convergence threshold     =      1.0E-22
     beta                      =       0.7000
     number of iterations used =            4
     Exchange-correlation= PBESOL
                           (   1   4  10   8   0   0   0)


     celldm(1)=   10.74659  celldm(2)=    0.00000  celldm(3)=    0.00000
     celldm(4)=    0.00000  celldm(5)=    0.00000  celldm(6)=    0.00000

     crystal axes: (cart. coord. in units of alat)
               a(1) = ( -0.5000  0.0000  0.5000 )  
               a(2) = (  0.0000  0.5000  0.5000 )  
               a(3) = ( -0.5000  0.5000  0.0000 )  

     reciprocal axes: (cart. coord. in units 2 pi/alat)
               b(1) = ( -1.0000 -1.0000  1.0000 )  
               b(2) = (  1.0000  1.0000  1.0000 )  
               b(3) = ( -1.0000  1.0000 -1.0000 )  


     Atoms inside the unit cell: 

     Cartesian axes

     site n.  atom      mass           positions (alat units)
        1     Ge  72.6400   tau(    1) = (    0.00000    0.00000    0.00000  )
        2     Ge  72.6400   tau(    2) = (   -0.25000    0.25000    0.25000  )

     Computing dynamical matrix for 
                    q = (  -0.1666667   0.1666667  -0.1666667 )
 
      6 Sym.Ops. (no q -> -q+G )


     G cutoff =  772.2996  (  22419 G-vectors)     FFT grid: ( 40, 40, 40)

     number of k points=  1632  Gaussian smearing, width (Ry)=  0.0200

     PseudoPot. # 1 for Ge read from file:
     /scratch1/fanchem/Ge/pp/Ge.pbesol-n-kjpaw_psl.1.0.0.UPF
     MD5 check sum: ba6169c2b85c6e6c9360c21392c70c8c
     Pseudo is Projector augmented-wave + core cor, Zval =  4.0
     Generated using "atomic" code by A. Dal Corso v.6.3
     Shape of augmentation charge: PSQ
     Using radial grid of 1207 points,  4 beta functions with: 
                l(1) =   0
                l(2) =   0
                l(3) =   1
                l(4) =   1
     Q(r) pseudized with 0 coefficients 


     Mode symmetry, C_3v (3m)   point group:


     Atomic displacements:
     There are    4 irreducible representations

     Representation     1      1 modes -  To be done

     Representation     2      1 modes -  To be done

     Representation     3      2 modes -  To be done

     Representation     4      2 modes -  To be done



     Alpha used in Ewald sum =   2.8000
     PHONON       :     30.23s CPU     42.69s WALL



     Representation #   1 mode #   1

     Self-consistent Calculation

      iter #   1 total cpu time :    43.6 secs   av.it.:   5.0
      thresh= 1.000E-02 alpha_mix =  0.700 |ddv_scf|^2 =  1.805E-03

      iter #   2 total cpu time :    45.0 secs   av.it.:   7.0
      thresh= 4.248E-03 alpha_mix =  0.700 |ddv_scf|^2 =  9.130E-02

      iter #   3 total cpu time :    46.4 secs   av.it.:   6.2
      thresh= 1.000E-02 alpha_mix =  0.700 |ddv_scf|^2 =  2.076E-07

      iter #   4 total cpu time :    47.7 secs   av.it.:   7.5
      thresh= 4.557E-05 alpha_mix =  0.700 |ddv_scf|^2 =  4.187E-09

      iter #   5 total cpu time :    49.1 secs   av.it.:   8.1
      thresh= 6.470E-06 alpha_mix =  0.700 |ddv_scf|^2 =  2.369E-09

      iter #   6 total cpu time :    50.4 secs   av.it.:   6.8
      thresh= 4.867E-06 alpha_mix =  0.700 |ddv_scf|^2 =  4.832E-09

      iter #   7 total cpu time :    51.7 secs   av.it.:   5.7
      thresh= 6.951E-06 alpha_mix =  0.700 |ddv_scf|^2 =  7.256E-11

      iter #   8 total cpu time :    52.9 secs   av.it.:   6.9
      thresh= 8.518E-07 alpha_mix =  0.700 |ddv_scf|^2 =  1.024E-11

      iter #   9 total cpu time :    54.1 secs   av.it.:   6.5
      thresh= 3.200E-07 alpha_mix =  0.700 |ddv_scf|^2 =  2.996E-14

      iter #  10 total cpu time :    55.4 secs   av.it.:   7.7
      thresh= 1.731E-08 alpha_mix =  0.700 |ddv_scf|^2 =  1.887E-14

      iter #  11 total cpu time :    56.6 secs   av.it.:   7.1
      thresh= 1.374E-08 alpha_mix =  0.700 |ddv_scf|^2 =  1.766E-15

      iter #  12 total cpu time :    57.7 secs   av.it.:   7.2
      thresh= 4.202E-09 alpha_mix =  0.700 |ddv_scf|^2 =  7.525E-18

      iter #  13 total cpu time :    59.1 secs   av.it.:   7.5
      thresh= 2.743E-10 alpha_mix =  0.700 |ddv_scf|^2 =  5.361E-19

      iter #  14 total cpu time :    60.4 secs   av.it.:   7.8
      thresh= 7.322E-11 alpha_mix =  0.700 |ddv_scf|^2 =  3.226E-18

      iter #  15 total cpu time :    61.7 secs   av.it.:   5.6
      thresh= 1.796E-10 alpha_mix =  0.700 |ddv_scf|^2 =  3.035E-19

      iter #  16 total cpu time :    63.0 secs   av.it.:   6.7
      thresh= 5.509E-11 alpha_mix =  0.700 |ddv_scf|^2 =  6.452E-22

      iter #  17 total cpu time :    64.4 secs   av.it.:   7.9
      thresh= 2.540E-12 alpha_mix =  0.700 |ddv_scf|^2 =  8.871E-22

      iter #  18 total cpu time :    65.5 secs   av.it.:   6.7
      thresh= 2.978E-12 alpha_mix =  0.700 |ddv_scf|^2 =  1.328E-21

      iter #  19 total cpu time :    66.5 secs   av.it.:   6.0
      thresh= 3.645E-12 alpha_mix =  0.700 |ddv_scf|^2 =  8.556E-24

     End of self-consistent calculation

     Convergence has been achieved 


     Representation #   2 mode #   2

     Self-consistent Calculation

      iter #   1 total cpu time :    67.9 secs   av.it.:   5.0
      thresh= 1.000E-02 alpha_mix =  0.700 |ddv_scf|^2 =  1.805E-03

      iter #   2 total cpu time :    69.2 secs   av.it.:   7.0
      thresh= 4.248E-03 alpha_mix =  0.700 |ddv_scf|^2 =  9.130E-02

      iter #   3 total cpu time :    70.7 secs   av.it.:   6.2
      thresh= 1.000E-02 alpha_mix =  0.700 |ddv_scf|^2 =  2.076E-07

      iter #   4 total cpu time :    72.1 secs   av.it.:   7.5
      thresh= 4.556E-05 alpha_mix =  0.700 |ddv_scf|^2 =  4.157E-09

      iter #   5 total cpu time :    73.5 secs   av.it.:   8.1
      thresh= 6.447E-06 alpha_mix =  0.700 |ddv_scf|^2 =  2.535E-09

      iter #   6 total cpu time :    74.7 secs   av.it.:   6.7
      thresh= 5.034E-06 alpha_mix =  0.700 |ddv_scf|^2 =  7.625E-09

      iter #   7 total cpu time :    75.8 secs   av.it.:   5.8
      thresh= 8.732E-06 alpha_mix =  0.700 |ddv_scf|^2 =  6.106E-11

      iter #   8 total cpu time :    77.1 secs   av.it.:   7.0
      thresh= 7.814E-07 alpha_mix =  0.700 |ddv_scf|^2 =  1.024E-11

      iter #   9 total cpu time :    78.2 secs   av.it.:   6.5
      thresh= 3.200E-07 alpha_mix =  0.700 |ddv_scf|^2 =  2.917E-14

      iter #  10 total cpu time :    79.6 secs   av.it.:   7.7
      thresh= 1.708E-08 alpha_mix =  0.700 |ddv_scf|^2 =  1.875E-14

      iter #  11 total cpu time :    80.8 secs   av.it.:   7.1
      thresh= 1.369E-08 alpha_mix =  0.700 |ddv_scf|^2 =  1.772E-15

      iter #  12 total cpu time :    82.1 secs   av.it.:   7.2
      thresh= 4.209E-09 alpha_mix =  0.700 |ddv_scf|^2 =  7.369E-18

      iter #  13 total cpu time :    83.3 secs   av.it.:   7.4
      thresh= 2.715E-10 alpha_mix =  0.700 |ddv_scf|^2 =  5.683E-19

      iter #  14 total cpu time :    84.8 secs   av.it.:   7.7
      thresh= 7.538E-11 alpha_mix =  0.700 |ddv_scf|^2 =  9.239E-19

      iter #  15 total cpu time :    85.9 secs   av.it.:   6.3
      thresh= 9.612E-11 alpha_mix =  0.700 |ddv_scf|^2 =  8.004E-19

      iter #  16 total cpu time :    87.2 secs   av.it.:   6.4
      thresh= 8.947E-11 alpha_mix =  0.700 |ddv_scf|^2 =  4.363E-22

      iter #  17 total cpu time :    88.5 secs   av.it.:   8.0
      thresh= 2.089E-12 alpha_mix =  0.700 |ddv_scf|^2 =  4.169E-22

      iter #  18 total cpu time :    89.8 secs   av.it.:   6.6
      thresh= 2.042E-12 alpha_mix =  0.700 |ddv_scf|^2 =  3.706E-22

      iter #  19 total cpu time :    90.7 secs   av.it.:   6.2
      thresh= 1.925E-12 alpha_mix =  0.700 |ddv_scf|^2 =  2.412E-24

     End of self-consistent calculation

     Convergence has been achieved 


     Representation #   3 modes #   3   4

     Self-consistent Calculation

      iter #   1 total cpu time :    92.7 secs   av.it.:   4.3
      thresh= 1.000E-02 alpha_mix =  0.700 |ddv_scf|^2 =  2.376E-08

      iter #   2 total cpu time :    95.1 secs   av.it.:   9.0
      thresh= 1.541E-05 alpha_mix =  0.700 |ddv_scf|^2 =  9.786E-10

      iter #   3 total cpu time :    97.6 secs   av.it.:   9.2
      thresh= 3.128E-06 alpha_mix =  0.700 |ddv_scf|^2 =  7.790E-11

      iter #   4 total cpu time :   100.0 secs   av.it.:   8.9
      thresh= 8.826E-07 alpha_mix =  0.700 |ddv_scf|^2 =  2.872E-12

      iter #   5 total cpu time :   102.5 secs   av.it.:   8.6
      thresh= 1.695E-07 alpha_mix =  0.700 |ddv_scf|^2 =  1.065E-14

      iter #   6 total cpu time :   105.0 secs   av.it.:   8.8
      thresh= 1.032E-08 alpha_mix =  0.700 |ddv_scf|^2 =  5.132E-16

      iter #   7 total cpu time :   107.3 secs   av.it.:   8.7
      thresh= 2.265E-09 alpha_mix =  0.700 |ddv_scf|^2 =  1.891E-17

      iter #   8 total cpu time :   109.6 secs   av.it.:   8.7
      thresh= 4.349E-10 alpha_mix =  0.700 |ddv_scf|^2 =  7.580E-19

      iter #   9 total cpu time :   112.2 secs   av.it.:   8.6
      thresh= 8.706E-11 alpha_mix =  0.700 |ddv_scf|^2 =  7.190E-21

      iter #  10 total cpu time :   115.1 secs   av.it.:   9.1
      thresh= 8.479E-12 alpha_mix =  0.700 |ddv_scf|^2 =  3.865E-22

      iter #  11 total cpu time :   121.0 secs   av.it.:   8.8
      thresh= 1.966E-12 alpha_mix =  0.700 |ddv_scf|^2 =  1.822E-23

     End of self-consistent calculation

     Convergence has been achieved 


     Representation #   4 modes #   5   6

     Self-consistent Calculation

      iter #   1 total cpu time :   124.0 secs   av.it.:   4.3
      thresh= 1.000E-02 alpha_mix =  0.700 |ddv_scf|^2 =  2.376E-08

      iter #   2 total cpu time :   126.4 secs   av.it.:   9.1
      thresh= 1.541E-05 alpha_mix =  0.700 |ddv_scf|^2 =  9.783E-10

      iter #   3 total cpu time :   128.8 secs   av.it.:   9.2
      thresh= 3.128E-06 alpha_mix =  0.700 |ddv_scf|^2 =  7.788E-11

      iter #   4 total cpu time :   131.2 secs   av.it.:   8.9
      thresh= 8.825E-07 alpha_mix =  0.700 |ddv_scf|^2 =  2.872E-12

      iter #   5 total cpu time :   133.7 secs   av.it.:   8.6
      thresh= 1.695E-07 alpha_mix =  0.700 |ddv_scf|^2 =  1.067E-14

      iter #   6 total cpu time :   136.1 secs   av.it.:   8.8
      thresh= 1.033E-08 alpha_mix =  0.700 |ddv_scf|^2 =  5.132E-16

      iter #   7 total cpu time :   138.5 secs   av.it.:   8.7
      thresh= 2.265E-09 alpha_mix =  0.700 |ddv_scf|^2 =  1.892E-17

      iter #   8 total cpu time :   140.9 secs   av.it.:   8.7
      thresh= 4.350E-10 alpha_mix =  0.700 |ddv_scf|^2 =  7.583E-19

      iter #   9 total cpu time :   143.3 secs   av.it.:   8.6
      thresh= 8.708E-11 alpha_mix =  0.700 |ddv_scf|^2 =  7.246E-21

      iter #  10 total cpu time :   145.8 secs   av.it.:   9.1
      thresh= 8.513E-12 alpha_mix =  0.700 |ddv_scf|^2 =  3.893E-22

      iter #  11 total cpu time :   147.9 secs   av.it.:   8.8
      thresh= 1.973E-12 alpha_mix =  0.700 |ddv_scf|^2 =  1.833E-23

     End of self-consistent calculation

     Convergence has been achieved 
 
     Number of q in the star =    8
     List of q in the star:
          1  -0.166666667   0.166666667  -0.166666667
          2   0.166666667   0.166666667   0.166666667
          3  -0.166666667  -0.166666667  -0.166666667
          4   0.166666667  -0.166666667   0.166666667
          5   0.166666667  -0.166666667  -0.166666667
          6   0.166666667   0.166666667  -0.166666667
          7  -0.166666667  -0.166666667   0.166666667
          8  -0.166666667   0.166666667   0.166666667

     Diagonalizing the dynamical matrix

     q = (   -0.166666667   0.166666667  -0.166666667 ) 

 **************************************************************************
     freq (    1) =       1.189376 [THz] =      39.673328 [cm-1]
     freq (    2) =       1.189376 [THz] =      39.673328 [cm-1]
     freq (    3) =       2.629786 [THz] =      87.720217 [cm-1]
     freq (    4) =       8.475845 [THz] =     282.723772 [cm-1]
     freq (    5) =       8.492416 [THz] =     283.276507 [cm-1]
     freq (    6) =       8.492416 [THz] =     283.276507 [cm-1]
 **************************************************************************

     Mode symmetry, C_3v (3m)   point group:

     freq (   1-   2) =         39.7  [cm-1]   --> E    L_3           
     freq (   3-   3) =         87.7  [cm-1]   --> A_1  L_1           
     freq (   4-   4) =        282.7  [cm-1]   --> A_1  L_1           
     freq (   5-   6) =        283.3  [cm-1]   --> E    L_3           

     Calculation of q =   -0.3333333   0.3333333  -0.3333333
 
     G-vector sticks info
     --------------------
     sticks:   dense  smooth     PW     G-vecs:    dense   smooth      PW
     Sum        1045    1045    349                22419    22419    4111
 

     Title: 
     phonon                                                                     


     bravais-lattice index     =            2
     lattice parameter (alat)  =      10.7466  a.u.
     unit-cell volume          =     310.2790 (a.u.)^3
     number of atoms/cell      =            2
     number of atomic types    =            1
     number of electrons       =         8.00
     number of Kohn-Sham states=            8
     kinetic-energy cutoff     =      66.0000  Ry
     charge density cutoff     =     264.0000  Ry
     Exchange-correlation= PBESOL
                           (   1   4  10   8   0   0   0)

     celldm(1)=  10.746593  celldm(2)=   0.000000  celldm(3)=   0.000000
     celldm(4)=   0.000000  celldm(5)=   0.000000  celldm(6)=   0.000000

     crystal axes: (cart. coord. in units of alat)
               a(1) = (  -0.500000   0.000000   0.500000 )  
               a(2) = (   0.000000   0.500000   0.500000 )  
               a(3) = (  -0.500000   0.500000   0.000000 )  

     reciprocal axes: (cart. coord. in units 2 pi/alat)
               b(1) = ( -1.000000 -1.000000  1.000000 )  
               b(2) = (  1.000000  1.000000  1.000000 )  
               b(3) = ( -1.000000  1.000000 -1.000000 )  


     PseudoPot. # 1 for Ge read from file:
     /scratch1/fanchem/Ge/pp/Ge.pbesol-n-kjpaw_psl.1.0.0.UPF
     MD5 check sum: ba6169c2b85c6e6c9360c21392c70c8c
     Pseudo is Projector augmented-wave + core cor, Zval =  4.0
     Generated using "atomic" code by A. Dal Corso v.6.3
     Shape of augmentation charge: PSQ
     Using radial grid of 1207 points,  4 beta functions with: 
                l(1) =   0
                l(2) =   0
                l(3) =   1
                l(4) =   1
     Q(r) pseudized with 0 coefficients 


     atomic species   valence    mass     pseudopotential
        Ge             4.00    72.64000     Ge( 1.00)

     48 Sym. Ops., with inversion, found



   Cartesian axes

     site n.     atom                  positions (alat units)
         1           Ge  tau(   1) = (   0.0000000   0.0000000   0.0000000  )
         2           Ge  tau(   2) = (  -0.2500000   0.2500000   0.2500000  )

     number of k points=  1632  Gaussian smearing, width (Ry)=  0.0200

     Number of k-points >= 100: set verbosity='high' to print them.

     Dense  grid:    22419 G-vectors     FFT dimensions: (  40,  40,  40)

     Estimated max dynamical RAM per process >      12.99 MB

     Estimated total dynamical RAM >       1.22 GB

     The potential is recalculated from file :
     ./_ph0/ge.q_3/ge.save/charge-density

     Starting wfcs are    8 atomic wfcs
     Checking if some PAW data can be deallocated... 

     Band Structure Calculation
     Davidson diagonalization with overlap

     ethr =  1.25E-10,  avg # of iterations = 15.1

     total cpu time spent up to now is        8.2 secs

     End of band structure calculation

     Number of k-points >= 100: set verbosity='high' to print the bands.

     the Fermi energy is     5.5827 ev

     Writing output data file ./_ph0/ge.q_3/ge.save/

     phonon                                                                     

     bravais-lattice index     =            2
     lattice parameter (alat)  =      10.7466  a.u.
     unit-cell volume          =     310.2790 (a.u.)^3
     number of atoms/cell      =            2
     number of atomic types    =            1
     kinetic-energy cut-off    =      66.0000  Ry
     charge density cut-off    =     264.0000  Ry
     convergence threshold     =      1.0E-22
     beta                      =       0.7000
     number of iterations used =            4
     Exchange-correlation= PBESOL
                           (   1   4  10   8   0   0   0)


     celldm(1)=   10.74659  celldm(2)=    0.00000  celldm(3)=    0.00000
     celldm(4)=    0.00000  celldm(5)=    0.00000  celldm(6)=    0.00000

     crystal axes: (cart. coord. in units of alat)
               a(1) = ( -0.5000  0.0000  0.5000 )  
               a(2) = (  0.0000  0.5000  0.5000 )  
               a(3) = ( -0.5000  0.5000  0.0000 )  

     reciprocal axes: (cart. coord. in units 2 pi/alat)
               b(1) = ( -1.0000 -1.0000  1.0000 )  
               b(2) = (  1.0000  1.0000  1.0000 )  
               b(3) = ( -1.0000  1.0000 -1.0000 )  


     Atoms inside the unit cell: 

     Cartesian axes

     site n.  atom      mass           positions (alat units)
        1     Ge  72.6400   tau(    1) = (    0.00000    0.00000    0.00000  )
        2     Ge  72.6400   tau(    2) = (   -0.25000    0.25000    0.25000  )

     Computing dynamical matrix for 
                    q = (  -0.3333333   0.3333333  -0.3333333 )
 
      6 Sym.Ops. (no q -> -q+G )


     G cutoff =  772.2996  (  22419 G-vectors)     FFT grid: ( 40, 40, 40)

     number of k points=  1632  Gaussian smearing, width (Ry)=  0.0200

     PseudoPot. # 1 for Ge read from file:
     /scratch1/fanchem/Ge/pp/Ge.pbesol-n-kjpaw_psl.1.0.0.UPF
     MD5 check sum: ba6169c2b85c6e6c9360c21392c70c8c
     Pseudo is Projector augmented-wave + core cor, Zval =  4.0
     Generated using "atomic" code by A. Dal Corso v.6.3
     Shape of augmentation charge: PSQ
     Using radial grid of 1207 points,  4 beta functions with: 
                l(1) =   0
                l(2) =   0
                l(3) =   1
                l(4) =   1
     Q(r) pseudized with 0 coefficients 


     Mode symmetry, C_3v (3m)   point group:


     Atomic displacements:
     There are    4 irreducible representations

     Representation     1      1 modes -  To be done

     Representation     2      1 modes -  To be done

     Representation     3      2 modes -  To be done

     Representation     4      2 modes -  To be done



     Alpha used in Ewald sum =   2.8000
     PHONON       :   1m57.16s CPU   2m36.02s WALL



     Representation #   1 mode #   1

     Self-consistent Calculation

      iter #   1 total cpu time :   156.9 secs   av.it.:   5.0
      thresh= 1.000E-02 alpha_mix =  0.700 |ddv_scf|^2 =  7.721E-05

      iter #   2 total cpu time :   158.1 secs   av.it.:   7.7
      thresh= 8.787E-04 alpha_mix =  0.700 |ddv_scf|^2 =  6.378E-04

      iter #   3 total cpu time :   159.2 secs   av.it.:   6.5
      thresh= 2.525E-03 alpha_mix =  0.700 |ddv_scf|^2 =  9.874E-08

      iter #   4 total cpu time :   160.6 secs   av.it.:   8.0
      thresh= 3.142E-05 alpha_mix =  0.700 |ddv_scf|^2 =  5.260E-09

      iter #   5 total cpu time :   161.9 secs   av.it.:   7.8
      thresh= 7.252E-06 alpha_mix =  0.700 |ddv_scf|^2 =  7.617E-11

      iter #   6 total cpu time :   163.2 secs   av.it.:   8.3
      thresh= 8.728E-07 alpha_mix =  0.700 |ddv_scf|^2 =  1.166E-11

      iter #   7 total cpu time :   164.4 secs   av.it.:   8.0
      thresh= 3.414E-07 alpha_mix =  0.700 |ddv_scf|^2 =  1.575E-11

      iter #   8 total cpu time :   165.7 secs   av.it.:   7.2
      thresh= 3.969E-07 alpha_mix =  0.700 |ddv_scf|^2 =  4.252E-12

      iter #   9 total cpu time :   166.9 secs   av.it.:   7.3
      thresh= 2.062E-07 alpha_mix =  0.700 |ddv_scf|^2 =  1.943E-12

      iter #  10 total cpu time :   168.0 secs   av.it.:   6.7
      thresh= 1.394E-07 alpha_mix =  0.700 |ddv_scf|^2 =  3.918E-15

      iter #  11 total cpu time :   169.4 secs   av.it.:   8.1
      thresh= 6.259E-09 alpha_mix =  0.700 |ddv_scf|^2 =  6.336E-16

      iter #  12 total cpu time :   170.6 secs   av.it.:   7.9
      thresh= 2.517E-09 alpha_mix =  0.700 |ddv_scf|^2 =  2.043E-16

      iter #  13 total cpu time :   172.1 secs   av.it.:   7.7
      thresh= 1.429E-09 alpha_mix =  0.700 |ddv_scf|^2 =  2.000E-17

      iter #  14 total cpu time :   173.4 secs   av.it.:   7.6
      thresh= 4.472E-10 alpha_mix =  0.700 |ddv_scf|^2 =  1.350E-17

      iter #  15 total cpu time :   174.6 secs   av.it.:   7.2
      thresh= 3.675E-10 alpha_mix =  0.700 |ddv_scf|^2 =  1.609E-18

      iter #  16 total cpu time :   176.1 secs   av.it.:   7.4
      thresh= 1.268E-10 alpha_mix =  0.700 |ddv_scf|^2 =  8.945E-20

      iter #  17 total cpu time :   177.4 secs   av.it.:   7.5
      thresh= 2.991E-11 alpha_mix =  0.700 |ddv_scf|^2 =  9.749E-21

      iter #  18 total cpu time :   178.6 secs   av.it.:   7.9
      thresh= 9.874E-12 alpha_mix =  0.700 |ddv_scf|^2 =  2.404E-21

      iter #  19 total cpu time :   180.1 secs   av.it.:   7.7
      thresh= 4.903E-12 alpha_mix =  0.700 |ddv_scf|^2 =  1.629E-21

      iter #  20 total cpu time :   181.2 secs   av.it.:   7.2
      thresh= 4.036E-12 alpha_mix =  0.700 |ddv_scf|^2 =  7.949E-23

     End of self-consistent calculation

     Convergence has been achieved 


     Representation #   2 mode #   2

     Self-consistent Calculation

      iter #   1 total cpu time :   182.7 secs   av.it.:   5.0
      thresh= 1.000E-02 alpha_mix =  0.700 |ddv_scf|^2 =  7.721E-05

      iter #   2 total cpu time :   184.2 secs   av.it.:   7.7
      thresh= 8.787E-04 alpha_mix =  0.700 |ddv_scf|^2 =  6.378E-04

      iter #   3 total cpu time :   185.7 secs   av.it.:   6.5
      thresh= 2.525E-03 alpha_mix =  0.700 |ddv_scf|^2 =  9.873E-08

      iter #   4 total cpu time :   187.0 secs   av.it.:   8.0
      thresh= 3.142E-05 alpha_mix =  0.700 |ddv_scf|^2 =  5.259E-09

      iter #   5 total cpu time :   188.4 secs   av.it.:   7.8
      thresh= 7.252E-06 alpha_mix =  0.700 |ddv_scf|^2 =  7.622E-11

      iter #   6 total cpu time :   189.8 secs   av.it.:   8.3
      thresh= 8.730E-07 alpha_mix =  0.700 |ddv_scf|^2 =  1.197E-11

      iter #   7 total cpu time :   191.2 secs   av.it.:   8.0
      thresh= 3.460E-07 alpha_mix =  0.700 |ddv_scf|^2 =  1.664E-11

      iter #   8 total cpu time :   192.4 secs   av.it.:   7.1
      thresh= 4.079E-07 alpha_mix =  0.700 |ddv_scf|^2 =  4.197E-12

      iter #   9 total cpu time :   193.7 secs   av.it.:   7.3
      thresh= 2.049E-07 alpha_mix =  0.700 |ddv_scf|^2 =  1.978E-12

      iter #  10 total cpu time :   195.3 secs   av.it.:   6.7
      thresh= 1.406E-07 alpha_mix =  0.700 |ddv_scf|^2 =  3.838E-15

      iter #  11 total cpu time :   196.8 secs   av.it.:   8.1
      thresh= 6.196E-09 alpha_mix =  0.700 |ddv_scf|^2 =  6.538E-16

      iter #  12 total cpu time :   198.7 secs   av.it.:   7.9
      thresh= 2.557E-09 alpha_mix =  0.700 |ddv_scf|^2 =  2.162E-16

      iter #  13 total cpu time :   200.2 secs   av.it.:   7.7
      thresh= 1.471E-09 alpha_mix =  0.700 |ddv_scf|^2 =  1.941E-17

      iter #  14 total cpu time :   201.5 secs   av.it.:   7.6
      thresh= 4.405E-10 alpha_mix =  0.700 |ddv_scf|^2 =  1.379E-17

      iter #  15 total cpu time :   203.0 secs   av.it.:   7.2
      thresh= 3.713E-10 alpha_mix =  0.700 |ddv_scf|^2 =  1.547E-18

      iter #  16 total cpu time :   204.4 secs   av.it.:   7.4
      thresh= 1.244E-10 alpha_mix =  0.700 |ddv_scf|^2 =  8.399E-20

      iter #  17 total cpu time :   205.7 secs   av.it.:   7.5
      thresh= 2.898E-11 alpha_mix =  0.700 |ddv_scf|^2 =  8.887E-21

      iter #  18 total cpu time :   207.0 secs   av.it.:   7.9
      thresh= 9.427E-12 alpha_mix =  0.700 |ddv_scf|^2 =  2.430E-21

      iter #  19 total cpu time :   208.6 secs   av.it.:   7.7
      thresh= 4.929E-12 alpha_mix =  0.700 |ddv_scf|^2 =  1.643E-21

      iter #  20 total cpu time :   209.7 secs   av.it.:   7.1
      thresh= 4.054E-12 alpha_mix =  0.700 |ddv_scf|^2 =  8.292E-23

     End of self-consistent calculation

     Convergence has been achieved 


     Representation #   3 modes #   3   4

     Self-consistent Calculation

      iter #   1 total cpu time :   211.9 secs   av.it.:   4.3
      thresh= 1.000E-02 alpha_mix =  0.700 |ddv_scf|^2 =  3.033E-08

      iter #   2 total cpu time :   214.4 secs   av.it.:   9.1
      thresh= 1.742E-05 alpha_mix =  0.700 |ddv_scf|^2 =  1.326E-09

      iter #   3 total cpu time :   217.3 secs   av.it.:   9.1
      thresh= 3.642E-06 alpha_mix =  0.700 |ddv_scf|^2 =  1.188E-10

      iter #   4 total cpu time :   220.0 secs   av.it.:   8.9
      thresh= 1.090E-06 alpha_mix =  0.700 |ddv_scf|^2 =  3.313E-12

      iter #   5 total cpu time :   222.5 secs   av.it.:   8.6
      thresh= 1.820E-07 alpha_mix =  0.700 |ddv_scf|^2 =  1.326E-14

      iter #   6 total cpu time :   225.3 secs   av.it.:   8.7
      thresh= 1.152E-08 alpha_mix =  0.700 |ddv_scf|^2 =  2.974E-16

      iter #   7 total cpu time :   227.6 secs   av.it.:   8.7
      thresh= 1.724E-09 alpha_mix =  0.700 |ddv_scf|^2 =  1.396E-17

      iter #   8 total cpu time :   229.9 secs   av.it.:   8.6
      thresh= 3.736E-10 alpha_mix =  0.700 |ddv_scf|^2 =  5.659E-19

      iter #   9 total cpu time :   232.5 secs   av.it.:   8.6
      thresh= 7.523E-11 alpha_mix =  0.700 |ddv_scf|^2 =  6.728E-21

      iter #  10 total cpu time :   234.8 secs   av.it.:   9.0
      thresh= 8.203E-12 alpha_mix =  0.700 |ddv_scf|^2 =  2.636E-22

      iter #  11 total cpu time :   236.9 secs   av.it.:   9.0
      thresh= 1.624E-12 alpha_mix =  0.700 |ddv_scf|^2 =  1.543E-23

     End of self-consistent calculation

     Convergence has been achieved 


     Representation #   4 modes #   5   6

     Self-consistent Calculation

      iter #   1 total cpu time :   239.2 secs   av.it.:   4.3
      thresh= 1.000E-02 alpha_mix =  0.700 |ddv_scf|^2 =  3.034E-08

      iter #   2 total cpu time :   241.7 secs   av.it.:   9.1
      thresh= 1.742E-05 alpha_mix =  0.700 |ddv_scf|^2 =  1.327E-09

      iter #   3 total cpu time :   244.6 secs   av.it.:   9.1
      thresh= 3.643E-06 alpha_mix =  0.700 |ddv_scf|^2 =  1.189E-10

      iter #   4 total cpu time :   247.1 secs   av.it.:   9.0
      thresh= 1.090E-06 alpha_mix =  0.700 |ddv_scf|^2 =  3.314E-12

      iter #   5 total cpu time :   249.8 secs   av.it.:   8.6
      thresh= 1.820E-07 alpha_mix =  0.700 |ddv_scf|^2 =  1.325E-14

      iter #   6 total cpu time :   252.2 secs   av.it.:   8.7
      thresh= 1.151E-08 alpha_mix =  0.700 |ddv_scf|^2 =  2.970E-16

      iter #   7 total cpu time :   254.4 secs   av.it.:   8.7
      thresh= 1.723E-09 alpha_mix =  0.700 |ddv_scf|^2 =  1.392E-17

      iter #   8 total cpu time :   256.9 secs   av.it.:   8.6
      thresh= 3.731E-10 alpha_mix =  0.700 |ddv_scf|^2 =  5.638E-19

      iter #   9 total cpu time :   259.3 secs   av.it.:   8.7
      thresh= 7.509E-11 alpha_mix =  0.700 |ddv_scf|^2 =  6.682E-21

      iter #  10 total cpu time :   261.7 secs   av.it.:   9.0
      thresh= 8.175E-12 alpha_mix =  0.700 |ddv_scf|^2 =  2.594E-22

      iter #  11 total cpu time :   263.8 secs   av.it.:   9.0
      thresh= 1.611E-12 alpha_mix =  0.700 |ddv_scf|^2 =  1.534E-23

     End of self-consistent calculation

     Convergence has been achieved 
 
     Number of q in the star =    8
     List of q in the star:
          1  -0.333333333   0.333333333  -0.333333333
          2   0.333333333   0.333333333   0.333333333
          3  -0.333333333  -0.333333333  -0.333333333
          4   0.333333333  -0.333333333   0.333333333
          5   0.333333333  -0.333333333  -0.333333333
          6   0.333333333   0.333333333  -0.333333333
          7  -0.333333333  -0.333333333   0.333333333
          8  -0.333333333   0.333333333   0.333333333

     Diagonalizing the dynamical matrix

     q = (   -0.333333333   0.333333333  -0.333333333 ) 

 **************************************************************************
     freq (    1) =       1.647512 [THz] =      54.955085 [cm-1]
     freq (    2) =       1.647512 [THz] =      54.955085 [cm-1]
     freq (    3) =       4.937299 [THz] =     164.690553 [cm-1]
     freq (    4) =       7.850013 [THz] =     261.848259 [cm-1]
     freq (    5) =       8.348207 [THz] =     278.466197 [cm-1]
     freq (    6) =       8.348207 [THz] =     278.466197 [cm-1]
 **************************************************************************

     Mode symmetry, C_3v (3m)   point group:

     freq (   1-   2) =         55.0  [cm-1]   --> E    L_3           
     freq (   3-   3) =        164.7  [cm-1]   --> A_1  L_1           
     freq (   4-   4) =        261.8  [cm-1]   --> A_1  L_1           
     freq (   5-   6) =        278.5  [cm-1]   --> E    L_3           

     Calculation of q =    0.5000000  -0.5000000   0.5000000
 
     G-vector sticks info
     --------------------
     sticks:   dense  smooth     PW     G-vecs:    dense   smooth      PW
     Sum        1045    1045    349                22419    22419    4285
 

     Title: 
     phonon                                                                     


     bravais-lattice index     =            2
     lattice parameter (alat)  =      10.7466  a.u.
     unit-cell volume          =     310.2790 (a.u.)^3
     number of atoms/cell      =            2
     number of atomic types    =            1
     number of electrons       =         8.00
     number of Kohn-Sham states=            8
     kinetic-energy cutoff     =      66.0000  Ry
     charge density cutoff     =     264.0000  Ry
     Exchange-correlation= PBESOL
                           (   1   4  10   8   0   0   0)

     celldm(1)=  10.746593  celldm(2)=   0.000000  celldm(3)=   0.000000
     celldm(4)=   0.000000  celldm(5)=   0.000000  celldm(6)=   0.000000

     crystal axes: (cart. coord. in units of alat)
               a(1) = (  -0.500000   0.000000   0.500000 )  
               a(2) = (   0.000000   0.500000   0.500000 )  
               a(3) = (  -0.500000   0.500000   0.000000 )  

     reciprocal axes: (cart. coord. in units 2 pi/alat)
               b(1) = ( -1.000000 -1.000000  1.000000 )  
               b(2) = (  1.000000  1.000000  1.000000 )  
               b(3) = ( -1.000000  1.000000 -1.000000 )  


     PseudoPot. # 1 for Ge read from file:
     /scratch1/fanchem/Ge/pp/Ge.pbesol-n-kjpaw_psl.1.0.0.UPF
     MD5 check sum: ba6169c2b85c6e6c9360c21392c70c8c
     Pseudo is Projector augmented-wave + core cor, Zval =  4.0
     Generated using "atomic" code by A. Dal Corso v.6.3
     Shape of augmentation charge: PSQ
     Using radial grid of 1207 points,  4 beta functions with: 
                l(1) =   0
                l(2) =   0
                l(3) =   1
                l(4) =   1
     Q(r) pseudized with 0 coefficients 


     atomic species   valence    mass     pseudopotential
        Ge             4.00    72.64000     Ge( 1.00)

     48 Sym. Ops., with inversion, found



   Cartesian axes

     site n.     atom                  positions (alat units)
         1           Ge  tau(   1) = (   0.0000000   0.0000000   0.0000000  )
         2           Ge  tau(   2) = (  -0.2500000   0.2500000   0.2500000  )

     number of k points=   834  Gaussian smearing, width (Ry)=  0.0200

     Number of k-points >= 100: set verbosity='high' to print them.

     Dense  grid:    22419 G-vectors     FFT dimensions: (  40,  40,  40)

     Estimated max dynamical RAM per process >      12.99 MB

     Estimated total dynamical RAM >       1.22 GB

     The potential is recalculated from file :
     ./_ph0/ge.q_4/ge.save/charge-density

     Starting wfcs are    8 atomic wfcs
     Checking if some PAW data can be deallocated... 

     Band Structure Calculation
     Davidson diagonalization with overlap

     ethr =  1.25E-10,  avg # of iterations = 14.9

     total cpu time spent up to now is       10.8 secs

     End of band structure calculation

     Number of k-points >= 100: set verbosity='high' to print the bands.

     the Fermi energy is     5.5827 ev

     Writing output data file ./_ph0/ge.q_4/ge.save/

     phonon                                                                     

     bravais-lattice index     =            2
     lattice parameter (alat)  =      10.7466  a.u.
     unit-cell volume          =     310.2790 (a.u.)^3
     number of atoms/cell      =            2
     number of atomic types    =            1
     kinetic-energy cut-off    =      66.0000  Ry
     charge density cut-off    =     264.0000  Ry
     convergence threshold     =      1.0E-22
     beta                      =       0.7000
     number of iterations used =            4
     Exchange-correlation= PBESOL
                           (   1   4  10   8   0   0   0)


     celldm(1)=   10.74659  celldm(2)=    0.00000  celldm(3)=    0.00000
     celldm(4)=    0.00000  celldm(5)=    0.00000  celldm(6)=    0.00000

     crystal axes: (cart. coord. in units of alat)
               a(1) = ( -0.5000  0.0000  0.5000 )  
               a(2) = (  0.0000  0.5000  0.5000 )  
               a(3) = ( -0.5000  0.5000  0.0000 )  

     reciprocal axes: (cart. coord. in units 2 pi/alat)
               b(1) = ( -1.0000 -1.0000  1.0000 )  
               b(2) = (  1.0000  1.0000  1.0000 )  
               b(3) = ( -1.0000  1.0000 -1.0000 )  


     Atoms inside the unit cell: 

     Cartesian axes

     site n.  atom      mass           positions (alat units)
        1     Ge  72.6400   tau(    1) = (    0.00000    0.00000    0.00000  )
        2     Ge  72.6400   tau(    2) = (   -0.25000    0.25000    0.25000  )

     Computing dynamical matrix for 
                    q = (   0.5000000  -0.5000000   0.5000000 )
 
     13 Sym.Ops. (with q -> -q+G )


     G cutoff =  772.2996  (  22419 G-vectors)     FFT grid: ( 40, 40, 40)

     number of k points=   834  Gaussian smearing, width (Ry)=  0.0200

     PseudoPot. # 1 for Ge read from file:
     /scratch1/fanchem/Ge/pp/Ge.pbesol-n-kjpaw_psl.1.0.0.UPF
     MD5 check sum: ba6169c2b85c6e6c9360c21392c70c8c
     Pseudo is Projector augmented-wave + core cor, Zval =  4.0
     Generated using "atomic" code by A. Dal Corso v.6.3
     Shape of augmentation charge: PSQ
     Using radial grid of 1207 points,  4 beta functions with: 
                l(1) =   0
                l(2) =   0
                l(3) =   1
                l(4) =   1
     Q(r) pseudized with 0 coefficients 



     Atomic displacements:
     There are    4 irreducible representations

     Representation     1      1 modes -  To be done

     Representation     2      1 modes -  To be done

     Representation     3      2 modes -  To be done

     Representation     4      2 modes -  To be done



     Alpha used in Ewald sum =   2.8000
     PHONON       :   3m24.82s CPU   4m29.64s WALL



     Representation #   1 mode #   1

     Self-consistent Calculation

      iter #   1 total cpu time :   270.5 secs   av.it.:   4.3
      thresh= 1.000E-02 alpha_mix =  0.700 |ddv_scf|^2 =  2.676E-06

      iter #   2 total cpu time :   271.4 secs   av.it.:   7.9
      thresh= 1.636E-04 alpha_mix =  0.700 |ddv_scf|^2 =  3.085E-06

      iter #   3 total cpu time :   272.4 secs   av.it.:   7.3
      thresh= 1.757E-04 alpha_mix =  0.700 |ddv_scf|^2 =  1.479E-09

      iter #   4 total cpu time :   273.3 secs   av.it.:   8.0
      thresh= 3.846E-06 alpha_mix =  0.700 |ddv_scf|^2 =  6.186E-11

      iter #   5 total cpu time :   274.3 secs   av.it.:   7.6
      thresh= 7.865E-07 alpha_mix =  0.700 |ddv_scf|^2 =  6.248E-13

      iter #   6 total cpu time :   275.5 secs   av.it.:   7.3
      thresh= 7.904E-08 alpha_mix =  0.700 |ddv_scf|^2 =  7.984E-15

      iter #   7 total cpu time :   276.4 secs   av.it.:   7.4
      thresh= 8.936E-09 alpha_mix =  0.700 |ddv_scf|^2 =  2.998E-16

      iter #   8 total cpu time :   277.3 secs   av.it.:   7.2
      thresh= 1.732E-09 alpha_mix =  0.700 |ddv_scf|^2 =  3.033E-18

      iter #   9 total cpu time :   278.5 secs   av.it.:   7.7
      thresh= 1.742E-10 alpha_mix =  0.700 |ddv_scf|^2 =  1.783E-19

      iter #  10 total cpu time :   279.4 secs   av.it.:   7.5
      thresh= 4.222E-11 alpha_mix =  0.700 |ddv_scf|^2 =  6.534E-21

      iter #  11 total cpu time :   280.4 secs   av.it.:   7.4
      thresh= 8.083E-12 alpha_mix =  0.700 |ddv_scf|^2 =  1.889E-22

      iter #  12 total cpu time :   281.1 secs   av.it.:   7.3
      thresh= 1.374E-12 alpha_mix =  0.700 |ddv_scf|^2 =  8.127E-24

     End of self-consistent calculation

     Convergence has been achieved 


     Representation #   2 mode #   2

     Self-consistent Calculation

      iter #   1 total cpu time :   282.2 secs   av.it.:   4.9
      thresh= 1.000E-02 alpha_mix =  0.700 |ddv_scf|^2 =  3.109E-05

      iter #   2 total cpu time :   283.0 secs   av.it.:   7.8
      thresh= 5.576E-04 alpha_mix =  0.700 |ddv_scf|^2 =  8.487E-05

      iter #   3 total cpu time :   283.8 secs   av.it.:   7.0
      thresh= 9.212E-04 alpha_mix =  0.700 |ddv_scf|^2 =  2.406E-08

      iter #   4 total cpu time :   284.7 secs   av.it.:   7.6
      thresh= 1.551E-05 alpha_mix =  0.700 |ddv_scf|^2 =  4.140E-10

      iter #   5 total cpu time :   285.7 secs   av.it.:   8.1
      thresh= 2.035E-06 alpha_mix =  0.700 |ddv_scf|^2 =  2.289E-11

      iter #   6 total cpu time :   286.7 secs   av.it.:   7.7
      thresh= 4.785E-07 alpha_mix =  0.700 |ddv_scf|^2 =  5.597E-13

      iter #   7 total cpu time :   287.6 secs   av.it.:   7.4
      thresh= 7.481E-08 alpha_mix =  0.700 |ddv_scf|^2 =  1.428E-15

      iter #   8 total cpu time :   288.5 secs   av.it.:   7.5
      thresh= 3.779E-09 alpha_mix =  0.700 |ddv_scf|^2 =  5.237E-17

      iter #   9 total cpu time :   289.5 secs   av.it.:   7.3
      thresh= 7.236E-10 alpha_mix =  0.700 |ddv_scf|^2 =  9.341E-19

      iter #  10 total cpu time :   290.4 secs   av.it.:   7.6
      thresh= 9.665E-11 alpha_mix =  0.700 |ddv_scf|^2 =  2.636E-20

      iter #  11 total cpu time :   291.4 secs   av.it.:   7.8
      thresh= 1.624E-11 alpha_mix =  0.700 |ddv_scf|^2 =  2.041E-20

      iter #  12 total cpu time :   292.4 secs   av.it.:   7.2
      thresh= 1.429E-11 alpha_mix =  0.700 |ddv_scf|^2 =  1.220E-22

      iter #  13 total cpu time :   293.1 secs   av.it.:   7.8
      thresh= 1.104E-12 alpha_mix =  0.700 |ddv_scf|^2 =  9.839E-24

     End of self-consistent calculation

     Convergence has been achieved 


     Representation #   3 modes #   3   4

     Self-consistent Calculation

      iter #   1 total cpu time :   294.7 secs   av.it.:   4.2
      thresh= 1.000E-02 alpha_mix =  0.700 |ddv_scf|^2 =  4.954E-08

      iter #   2 total cpu time :   296.8 secs   av.it.:   8.7
      thresh= 2.226E-05 alpha_mix =  0.700 |ddv_scf|^2 =  2.312E-09

      iter #   3 total cpu time :   298.4 secs   av.it.:   8.9
      thresh= 4.809E-06 alpha_mix =  0.700 |ddv_scf|^2 =  1.745E-10

      iter #   4 total cpu time :   300.0 secs   av.it.:   8.7
      thresh= 1.321E-06 alpha_mix =  0.700 |ddv_scf|^2 =  3.619E-12

      iter #   5 total cpu time :   302.6 secs   av.it.:   8.1
      thresh= 1.902E-07 alpha_mix =  0.700 |ddv_scf|^2 =  3.700E-15

      iter #   6 total cpu time :   305.0 secs   av.it.:   8.6
      thresh= 6.083E-09 alpha_mix =  0.700 |ddv_scf|^2 =  1.285E-16

      iter #   7 total cpu time :   306.9 secs   av.it.:   8.2
      thresh= 1.134E-09 alpha_mix =  0.700 |ddv_scf|^2 =  3.819E-18

      iter #   8 total cpu time :   308.5 secs   av.it.:   8.4
      thresh= 1.954E-10 alpha_mix =  0.700 |ddv_scf|^2 =  5.595E-20

      iter #   9 total cpu time :   310.1 secs   av.it.:   8.7
      thresh= 2.365E-11 alpha_mix =  0.700 |ddv_scf|^2 =  1.284E-21

      iter #  10 total cpu time :   311.5 secs   av.it.:   8.9
      thresh= 3.584E-12 alpha_mix =  0.700 |ddv_scf|^2 =  5.031E-23

     End of self-consistent calculation

     Convergence has been achieved 


     Representation #   4 modes #   5   6

     Self-consistent Calculation

      iter #   1 total cpu time :   313.2 secs   av.it.:   4.1
      thresh= 1.000E-02 alpha_mix =  0.700 |ddv_scf|^2 =  1.711E-08

      iter #   2 total cpu time :   314.9 secs   av.it.:   9.0
      thresh= 1.308E-05 alpha_mix =  0.700 |ddv_scf|^2 =  7.109E-10

      iter #   3 total cpu time :   316.6 secs   av.it.:   9.0
      thresh= 2.666E-06 alpha_mix =  0.700 |ddv_scf|^2 =  2.223E-11

      iter #   4 total cpu time :   318.4 secs   av.it.:   8.5
      thresh= 4.715E-07 alpha_mix =  0.700 |ddv_scf|^2 =  1.665E-13

      iter #   5 total cpu time :   320.0 secs   av.it.:   8.6
      thresh= 4.080E-08 alpha_mix =  0.700 |ddv_scf|^2 =  1.770E-15

      iter #   6 total cpu time :   321.8 secs   av.it.:   8.6
      thresh= 4.207E-09 alpha_mix =  0.700 |ddv_scf|^2 =  1.135E-16

      iter #   7 total cpu time :   323.5 secs   av.it.:   8.2
      thresh= 1.065E-09 alpha_mix =  0.700 |ddv_scf|^2 =  5.721E-18

      iter #   8 total cpu time :   325.0 secs   av.it.:   8.5
      thresh= 2.392E-10 alpha_mix =  0.700 |ddv_scf|^2 =  4.504E-20

      iter #   9 total cpu time :   326.7 secs   av.it.:   8.7
      thresh= 2.122E-11 alpha_mix =  0.700 |ddv_scf|^2 =  2.251E-22

      iter #  10 total cpu time :   328.1 secs   av.it.:   8.6
      thresh= 1.500E-12 alpha_mix =  0.700 |ddv_scf|^2 =  1.575E-23

     End of self-consistent calculation

     Convergence has been achieved 
 
     Number of q in the star =    4
     List of q in the star:
          1   0.500000000  -0.500000000   0.500000000
          2   0.500000000   0.500000000   0.500000000
          3  -0.500000000   0.500000000   0.500000000
          4   0.500000000   0.500000000  -0.500000000

     Diagonalizing the dynamical matrix

     q = (    0.500000000  -0.500000000   0.500000000 ) 

 **************************************************************************
     freq (    1) =       1.716578 [THz] =      57.258868 [cm-1]
     freq (    2) =       1.716578 [THz] =      57.258868 [cm-1]
     freq (    3) =       6.394826 [THz] =     213.308430 [cm-1]
     freq (    4) =       6.938865 [THz] =     231.455638 [cm-1]
     freq (    5) =       8.317474 [THz] =     277.441075 [cm-1]
     freq (    6) =       8.317474 [THz] =     277.441075 [cm-1]
 **************************************************************************

     Calculation of q =    0.0000000   0.3333333   0.0000000
 
     G-vector sticks info
     --------------------
     sticks:   dense  smooth     PW     G-vecs:    dense   smooth      PW
     Sum        1045    1045    313                22419    22419    3839
 

     Title: 
     phonon                                                                     


     bravais-lattice index     =            2
     lattice parameter (alat)  =      10.7466  a.u.
     unit-cell volume          =     310.2790 (a.u.)^3
     number of atoms/cell      =            2
     number of atomic types    =            1
     number of electrons       =         8.00
     number of Kohn-Sham states=            8
     kinetic-energy cutoff     =      66.0000  Ry
     charge density cutoff     =     264.0000  Ry
     Exchange-correlation= PBESOL
                           (   1   4  10   8   0   0   0)

     celldm(1)=  10.746593  celldm(2)=   0.000000  celldm(3)=   0.000000
     celldm(4)=   0.000000  celldm(5)=   0.000000  celldm(6)=   0.000000

     crystal axes: (cart. coord. in units of alat)
               a(1) = (  -0.500000   0.000000   0.500000 )  
               a(2) = (   0.000000   0.500000   0.500000 )  
               a(3) = (  -0.500000   0.500000   0.000000 )  

     reciprocal axes: (cart. coord. in units 2 pi/alat)
               b(1) = ( -1.000000 -1.000000  1.000000 )  
               b(2) = (  1.000000  1.000000  1.000000 )  
               b(3) = ( -1.000000  1.000000 -1.000000 )  


     PseudoPot. # 1 for Ge read from file:
     /scratch1/fanchem/Ge/pp/Ge.pbesol-n-kjpaw_psl.1.0.0.UPF
     MD5 check sum: ba6169c2b85c6e6c9360c21392c70c8c
     Pseudo is Projector augmented-wave + core cor, Zval =  4.0
     Generated using "atomic" code by A. Dal Corso v.6.3
     Shape of augmentation charge: PSQ
     Using radial grid of 1207 points,  4 beta functions with: 
                l(1) =   0
                l(2) =   0
                l(3) =   1
                l(4) =   1
     Q(r) pseudized with 0 coefficients 


     atomic species   valence    mass     pseudopotential
        Ge             4.00    72.64000     Ge( 1.00)

     48 Sym. Ops., with inversion, found



   Cartesian axes

     site n.     atom                  positions (alat units)
         1           Ge  tau(   1) = (   0.0000000   0.0000000   0.0000000  )
         2           Ge  tau(   2) = (  -0.2500000   0.2500000   0.2500000  )

     number of k points=  1296  Gaussian smearing, width (Ry)=  0.0200

     Number of k-points >= 100: set verbosity='high' to print them.

     Dense  grid:    22419 G-vectors     FFT dimensions: (  40,  40,  40)

     Estimated max dynamical RAM per process >      12.98 MB

     Estimated total dynamical RAM >       1.22 GB

     The potential is recalculated from file :
     ./_ph0/ge.q_5/ge.save/charge-density

     Starting wfcs are    8 atomic wfcs
     Checking if some PAW data can be deallocated... 

     Band Structure Calculation
     Davidson diagonalization with overlap

     ethr =  1.25E-10,  avg # of iterations = 14.9

     total cpu time spent up to now is       14.2 secs

     End of band structure calculation

     Number of k-points >= 100: set verbosity='high' to print the bands.

     the Fermi energy is     5.5827 ev

     Writing output data file ./_ph0/ge.q_5/ge.save/

     phonon                                                                     

     bravais-lattice index     =            2
     lattice parameter (alat)  =      10.7466  a.u.
     unit-cell volume          =     310.2790 (a.u.)^3
     number of atoms/cell      =            2
     number of atomic types    =            1
     kinetic-energy cut-off    =      66.0000  Ry
     charge density cut-off    =     264.0000  Ry
     convergence threshold     =      1.0E-22
     beta                      =       0.7000
     number of iterations used =            4
     Exchange-correlation= PBESOL
                           (   1   4  10   8   0   0   0)


     celldm(1)=   10.74659  celldm(2)=    0.00000  celldm(3)=    0.00000
     celldm(4)=    0.00000  celldm(5)=    0.00000  celldm(6)=    0.00000

     crystal axes: (cart. coord. in units of alat)
               a(1) = ( -0.5000  0.0000  0.5000 )  
               a(2) = (  0.0000  0.5000  0.5000 )  
               a(3) = ( -0.5000  0.5000  0.0000 )  

     reciprocal axes: (cart. coord. in units 2 pi/alat)
               b(1) = ( -1.0000 -1.0000  1.0000 )  
               b(2) = (  1.0000  1.0000  1.0000 )  
               b(3) = ( -1.0000  1.0000 -1.0000 )  


     Atoms inside the unit cell: 

     Cartesian axes

     site n.  atom      mass           positions (alat units)
        1     Ge  72.6400   tau(    1) = (    0.00000    0.00000    0.00000  )
        2     Ge  72.6400   tau(    2) = (   -0.25000    0.25000    0.25000  )

     Computing dynamical matrix for 
                    q = (   0.0000000   0.3333333   0.0000000 )
 
      8 Sym.Ops. (no q -> -q+G )


     G cutoff =  772.2996  (  22419 G-vectors)     FFT grid: ( 40, 40, 40)

     number of k points=  1296  Gaussian smearing, width (Ry)=  0.0200

     PseudoPot. # 1 for Ge read from file:
     /scratch1/fanchem/Ge/pp/Ge.pbesol-n-kjpaw_psl.1.0.0.UPF
     MD5 check sum: ba6169c2b85c6e6c9360c21392c70c8c
     Pseudo is Projector augmented-wave + core cor, Zval =  4.0
     Generated using "atomic" code by A. Dal Corso v.6.3
     Shape of augmentation charge: PSQ
     Using radial grid of 1207 points,  4 beta functions with: 
                l(1) =   0
                l(2) =   0
                l(3) =   1
                l(4) =   1
     Q(r) pseudized with 0 coefficients 


     Mode symmetry, C_4v (4mm)  point group:


     Atomic displacements:
     There are    4 irreducible representations

     Representation     1      1 modes -  To be done

     Representation     2      1 modes -  To be done

     Representation     3      2 modes -  To be done

     Representation     4      2 modes -  To be done



     Alpha used in Ewald sum =   2.8000
     PHONON       :   4m14.01s CPU   5m34.65s WALL



     Representation #   1 mode #   1

     Self-consistent Calculation

      iter #   1 total cpu time :   335.5 secs   av.it.:   5.1
      thresh= 1.000E-02 alpha_mix =  0.700 |ddv_scf|^2 =  2.263E-03

      iter #   2 total cpu time :   336.6 secs   av.it.:   7.1
      thresh= 4.757E-03 alpha_mix =  0.700 |ddv_scf|^2 =  9.829E-02

      iter #   3 total cpu time :   337.6 secs   av.it.:   6.4
      thresh= 1.000E-02 alpha_mix =  0.700 |ddv_scf|^2 =  3.202E-08

      iter #   4 total cpu time :   338.8 secs   av.it.:   7.2
      thresh= 1.789E-05 alpha_mix =  0.700 |ddv_scf|^2 =  1.549E-08

      iter #   5 total cpu time :   339.9 secs   av.it.:   6.3
      thresh= 1.244E-05 alpha_mix =  0.700 |ddv_scf|^2 =  7.552E-11

      iter #   6 total cpu time :   341.1 secs   av.it.:   7.0
      thresh= 8.690E-07 alpha_mix =  0.700 |ddv_scf|^2 =  1.986E-12

      iter #   7 total cpu time :   342.1 secs   av.it.:   7.0
      thresh= 1.409E-07 alpha_mix =  0.700 |ddv_scf|^2 =  2.778E-13

      iter #   8 total cpu time :   343.3 secs   av.it.:   5.8
      thresh= 5.270E-08 alpha_mix =  0.700 |ddv_scf|^2 =  5.538E-16

      iter #   9 total cpu time :   344.4 secs   av.it.:   6.6
      thresh= 2.353E-09 alpha_mix =  0.700 |ddv_scf|^2 =  1.472E-17

      iter #  10 total cpu time :   345.4 secs   av.it.:   7.2
      thresh= 3.836E-10 alpha_mix =  0.700 |ddv_scf|^2 =  8.161E-19

      iter #  11 total cpu time :   346.6 secs   av.it.:   7.0
      thresh= 9.034E-11 alpha_mix =  0.700 |ddv_scf|^2 =  2.446E-18

      iter #  12 total cpu time :   347.6 secs   av.it.:   5.4
      thresh= 1.564E-10 alpha_mix =  0.700 |ddv_scf|^2 =  7.754E-21

      iter #  13 total cpu time :   348.7 secs   av.it.:   7.0
      thresh= 8.806E-12 alpha_mix =  0.700 |ddv_scf|^2 =  2.219E-22

      iter #  14 total cpu time :   349.5 secs   av.it.:   6.9
      thresh= 1.490E-12 alpha_mix =  0.700 |ddv_scf|^2 =  5.018E-24

     End of self-consistent calculation

     Convergence has been achieved 


     Representation #   2 mode #   2

     Self-consistent Calculation

      iter #   1 total cpu time :   350.8 secs   av.it.:   4.1
      thresh= 1.000E-02 alpha_mix =  0.700 |ddv_scf|^2 =  1.887E-07

      iter #   2 total cpu time :   351.9 secs   av.it.:   8.2
      thresh= 4.344E-05 alpha_mix =  0.700 |ddv_scf|^2 =  3.817E-08

      iter #   3 total cpu time :   353.0 secs   av.it.:   8.1
      thresh= 1.954E-05 alpha_mix =  0.700 |ddv_scf|^2 =  1.435E-09

      iter #   4 total cpu time :   354.3 secs   av.it.:   8.1
      thresh= 3.788E-06 alpha_mix =  0.700 |ddv_scf|^2 =  3.431E-11

      iter #   5 total cpu time :   355.3 secs   av.it.:   7.9
      thresh= 5.857E-07 alpha_mix =  0.700 |ddv_scf|^2 =  1.121E-12

      iter #   6 total cpu time :   356.5 secs   av.it.:   7.7
      thresh= 1.059E-07 alpha_mix =  0.700 |ddv_scf|^2 =  6.042E-15

      iter #   7 total cpu time :   357.7 secs   av.it.:   7.7
      thresh= 7.773E-09 alpha_mix =  0.700 |ddv_scf|^2 =  3.454E-16

      iter #   8 total cpu time :   358.8 secs   av.it.:   7.7
      thresh= 1.859E-09 alpha_mix =  0.700 |ddv_scf|^2 =  8.840E-18

      iter #   9 total cpu time :   359.9 secs   av.it.:   7.6
      thresh= 2.973E-10 alpha_mix =  0.700 |ddv_scf|^2 =  3.355E-19

      iter #  10 total cpu time :   361.0 secs   av.it.:   8.3
      thresh= 5.792E-11 alpha_mix =  0.700 |ddv_scf|^2 =  5.955E-20

      iter #  11 total cpu time :   362.2 secs   av.it.:   8.0
      thresh= 2.440E-11 alpha_mix =  0.700 |ddv_scf|^2 =  5.883E-22

      iter #  12 total cpu time :   363.1 secs   av.it.:   7.9
      thresh= 2.425E-12 alpha_mix =  0.700 |ddv_scf|^2 =  3.266E-23

     End of self-consistent calculation

     Convergence has been achieved 


     Representation #   3 modes #   3   4

     Self-consistent Calculation

      iter #   1 total cpu time :   365.0 secs   av.it.:   4.3
      thresh= 1.000E-02 alpha_mix =  0.700 |ddv_scf|^2 =  3.277E-08

      iter #   2 total cpu time :   367.1 secs   av.it.:   9.1
      thresh= 1.810E-05 alpha_mix =  0.700 |ddv_scf|^2 =  1.707E-09

      iter #   3 total cpu time :   369.3 secs   av.it.:   9.1
      thresh= 4.131E-06 alpha_mix =  0.700 |ddv_scf|^2 =  1.409E-10

      iter #   4 total cpu time :   371.2 secs   av.it.:   8.9
      thresh= 1.187E-06 alpha_mix =  0.700 |ddv_scf|^2 =  3.561E-12

      iter #   5 total cpu time :   373.4 secs   av.it.:   8.5
      thresh= 1.887E-07 alpha_mix =  0.700 |ddv_scf|^2 =  1.888E-14

      iter #   6 total cpu time :   375.4 secs   av.it.:   8.4
      thresh= 1.374E-08 alpha_mix =  0.700 |ddv_scf|^2 =  5.671E-16

      iter #   7 total cpu time :   377.5 secs   av.it.:   8.7
      thresh= 2.381E-09 alpha_mix =  0.700 |ddv_scf|^2 =  1.307E-17

      iter #   8 total cpu time :   379.5 secs   av.it.:   8.4
      thresh= 3.615E-10 alpha_mix =  0.700 |ddv_scf|^2 =  6.114E-19

      iter #   9 total cpu time :   381.4 secs   av.it.:   8.5
      thresh= 7.819E-11 alpha_mix =  0.700 |ddv_scf|^2 =  6.249E-21

      iter #  10 total cpu time :   383.5 secs   av.it.:   9.0
      thresh= 7.905E-12 alpha_mix =  0.700 |ddv_scf|^2 =  4.173E-22

      iter #  11 total cpu time :   385.5 secs   av.it.:   8.9
      thresh= 2.043E-12 alpha_mix =  0.700 |ddv_scf|^2 =  1.829E-23

     End of self-consistent calculation

     Convergence has been achieved 


     Representation #   4 modes #   5   6

     Self-consistent Calculation

      iter #   1 total cpu time :   387.2 secs   av.it.:   4.3
      thresh= 1.000E-02 alpha_mix =  0.700 |ddv_scf|^2 =  4.155E-08

      iter #   2 total cpu time :   389.2 secs   av.it.:   9.0
      thresh= 2.038E-05 alpha_mix =  0.700 |ddv_scf|^2 =  2.138E-09

      iter #   3 total cpu time :   391.3 secs   av.it.:   9.0
      thresh= 4.624E-06 alpha_mix =  0.700 |ddv_scf|^2 =  1.596E-10

      iter #   4 total cpu time :   393.5 secs   av.it.:   8.9
      thresh= 1.263E-06 alpha_mix =  0.700 |ddv_scf|^2 =  3.685E-12

      iter #   5 total cpu time :   395.4 secs   av.it.:   8.5
      thresh= 1.920E-07 alpha_mix =  0.700 |ddv_scf|^2 =  2.227E-14

      iter #   6 total cpu time :   397.4 secs   av.it.:   8.4
      thresh= 1.492E-08 alpha_mix =  0.700 |ddv_scf|^2 =  6.404E-16

      iter #   7 total cpu time :   399.6 secs   av.it.:   8.6
      thresh= 2.531E-09 alpha_mix =  0.700 |ddv_scf|^2 =  1.708E-17

      iter #   8 total cpu time :   401.7 secs   av.it.:   8.4
      thresh= 4.133E-10 alpha_mix =  0.700 |ddv_scf|^2 =  6.839E-19

      iter #   9 total cpu time :   403.6 secs   av.it.:   8.5
      thresh= 8.270E-11 alpha_mix =  0.700 |ddv_scf|^2 =  7.092E-21

      iter #  10 total cpu time :   405.8 secs   av.it.:   9.0
      thresh= 8.422E-12 alpha_mix =  0.700 |ddv_scf|^2 =  4.781E-22

      iter #  11 total cpu time :   407.5 secs   av.it.:   8.8
      thresh= 2.187E-12 alpha_mix =  0.700 |ddv_scf|^2 =  2.103E-23

     End of self-consistent calculation

     Convergence has been achieved 
 
     Number of q in the star =    6
     List of q in the star:
          1   0.000000000   0.333333333   0.000000000
          2   0.333333333   0.000000000   0.000000000
          3   0.000000000   0.000000000   0.333333333
          4   0.000000000  -0.333333333   0.000000000
          5  -0.333333333   0.000000000   0.000000000
          6   0.000000000   0.000000000  -0.333333333

     Diagonalizing the dynamical matrix

     q = (    0.000000000   0.333333333   0.000000000 ) 

 **************************************************************************
     freq (    1) =       1.605199 [THz] =      53.543686 [cm-1]
     freq (    2) =       1.605199 [THz] =      53.543686 [cm-1]
     freq (    3) =       2.708420 [THz] =      90.343170 [cm-1]
     freq (    4) =       8.259563 [THz] =     275.509369 [cm-1]
     freq (    5) =       8.259563 [THz] =     275.509369 [cm-1]
     freq (    6) =       8.617201 [THz] =     287.438902 [cm-1]
 **************************************************************************

     Mode symmetry, C_4v (4mm)  point group:

     freq (   1-   2) =         53.5  [cm-1]   --> E    G_5 D_5       
     freq (   3-   3) =         90.3  [cm-1]   --> A_1  G_1 D_1       
     freq (   4-   5) =        275.5  [cm-1]   --> E    G_5 D_5       
     freq (   6-   6) =        287.4  [cm-1]   --> B_2  G_4 D_2'      

     Calculation of q =   -0.1666667   0.5000000  -0.1666667
 
     G-vector sticks info
     --------------------
     sticks:   dense  smooth     PW     G-vecs:    dense   smooth      PW
     Sum        1045    1045    337                22419    22419    4015
 

     Title: 
     phonon                                                                     


     bravais-lattice index     =            2
     lattice parameter (alat)  =      10.7466  a.u.
     unit-cell volume          =     310.2790 (a.u.)^3
     number of atoms/cell      =            2
     number of atomic types    =            1
     number of electrons       =         8.00
     number of Kohn-Sham states=            8
     kinetic-energy cutoff     =      66.0000  Ry
     charge density cutoff     =     264.0000  Ry
     Exchange-correlation= PBESOL
                           (   1   4  10   8   0   0   0)

     celldm(1)=  10.746593  celldm(2)=   0.000000  celldm(3)=   0.000000
     celldm(4)=   0.000000  celldm(5)=   0.000000  celldm(6)=   0.000000

     crystal axes: (cart. coord. in units of alat)
               a(1) = (  -0.500000   0.000000   0.500000 )  
               a(2) = (   0.000000   0.500000   0.500000 )  
               a(3) = (  -0.500000   0.500000   0.000000 )  

     reciprocal axes: (cart. coord. in units 2 pi/alat)
               b(1) = ( -1.000000 -1.000000  1.000000 )  
               b(2) = (  1.000000  1.000000  1.000000 )  
               b(3) = ( -1.000000  1.000000 -1.000000 )  


     PseudoPot. # 1 for Ge read from file:
     /scratch1/fanchem/Ge/pp/Ge.pbesol-n-kjpaw_psl.1.0.0.UPF
     MD5 check sum: ba6169c2b85c6e6c9360c21392c70c8c
     Pseudo is Projector augmented-wave + core cor, Zval =  4.0
     Generated using "atomic" code by A. Dal Corso v.6.3
     Shape of augmentation charge: PSQ
     Using radial grid of 1207 points,  4 beta functions with: 
                l(1) =   0
                l(2) =   0
                l(3) =   1
                l(4) =   1
     Q(r) pseudized with 0 coefficients 


     atomic species   valence    mass     pseudopotential
        Ge             4.00    72.64000     Ge( 1.00)

     48 Sym. Ops., with inversion, found



   Cartesian axes

     site n.     atom                  positions (alat units)
         1           Ge  tau(   1) = (   0.0000000   0.0000000   0.0000000  )
         2           Ge  tau(   2) = (  -0.2500000   0.2500000   0.2500000  )

     number of k points=  4352  Gaussian smearing, width (Ry)=  0.0200

     Number of k-points >= 100: set verbosity='high' to print them.

     Dense  grid:    22419 G-vectors     FFT dimensions: (  40,  40,  40)

     Estimated max dynamical RAM per process >      12.99 MB

     Estimated total dynamical RAM >       1.22 GB

     The potential is recalculated from file :
     ./_ph0/ge.q_6/ge.save/charge-density

     Starting wfcs are    8 atomic wfcs
     Checking if some PAW data can be deallocated... 

     Band Structure Calculation
     Davidson diagonalization with overlap

     ethr =  1.25E-10,  avg # of iterations = 15.2

     total cpu time spent up to now is       23.6 secs

     End of band structure calculation

     Number of k-points >= 100: set verbosity='high' to print the bands.

     the Fermi energy is     5.5827 ev

     Writing output data file ./_ph0/ge.q_6/ge.save/

     phonon                                                                     

     bravais-lattice index     =            2
     lattice parameter (alat)  =      10.7466  a.u.
     unit-cell volume          =     310.2790 (a.u.)^3
     number of atoms/cell      =            2
     number of atomic types    =            1
     kinetic-energy cut-off    =      66.0000  Ry
     charge density cut-off    =     264.0000  Ry
     convergence threshold     =      1.0E-22
     beta                      =       0.7000
     number of iterations used =            4
     Exchange-correlation= PBESOL
                           (   1   4  10   8   0   0   0)


     celldm(1)=   10.74659  celldm(2)=    0.00000  celldm(3)=    0.00000
     celldm(4)=    0.00000  celldm(5)=    0.00000  celldm(6)=    0.00000

     crystal axes: (cart. coord. in units of alat)
               a(1) = ( -0.5000  0.0000  0.5000 )  
               a(2) = (  0.0000  0.5000  0.5000 )  
               a(3) = ( -0.5000  0.5000  0.0000 )  

     reciprocal axes: (cart. coord. in units 2 pi/alat)
               b(1) = ( -1.0000 -1.0000  1.0000 )  
               b(2) = (  1.0000  1.0000  1.0000 )  
               b(3) = ( -1.0000  1.0000 -1.0000 )  


     Atoms inside the unit cell: 

     Cartesian axes

     site n.  atom      mass           positions (alat units)
        1     Ge  72.6400   tau(    1) = (    0.00000    0.00000    0.00000  )
        2     Ge  72.6400   tau(    2) = (   -0.25000    0.25000    0.25000  )

     Computing dynamical matrix for 
                    q = (  -0.1666667   0.5000000  -0.1666667 )
 
      2 Sym.Ops. (no q -> -q+G )


     G cutoff =  772.2996  (  22419 G-vectors)     FFT grid: ( 40, 40, 40)

     number of k points=  4352  Gaussian smearing, width (Ry)=  0.0200

     PseudoPot. # 1 for Ge read from file:
     /scratch1/fanchem/Ge/pp/Ge.pbesol-n-kjpaw_psl.1.0.0.UPF
     MD5 check sum: ba6169c2b85c6e6c9360c21392c70c8c
     Pseudo is Projector augmented-wave + core cor, Zval =  4.0
     Generated using "atomic" code by A. Dal Corso v.6.3
     Shape of augmentation charge: PSQ
     Using radial grid of 1207 points,  4 beta functions with: 
                l(1) =   0
                l(2) =   0
                l(3) =   1
                l(4) =   1
     Q(r) pseudized with 0 coefficients 


     Mode symmetry, C_s (m)     point group:


     Atomic displacements:
     There are    6 irreducible representations

     Representation     1      1 modes -  To be done

     Representation     2      1 modes -  To be done

     Representation     3      1 modes -  To be done

     Representation     4      1 modes -  To be done

     Representation     5      1 modes -  To be done

     Representation     6      1 modes -  To be done



     Alpha used in Ewald sum =   2.8000
     PHONON       :   5m21.31s CPU   7m 1.49s WALL



     Representation #   1 mode #   1

     Self-consistent Calculation

      iter #   1 total cpu time :   423.4 secs   av.it.:   5.0
      thresh= 1.000E-02 alpha_mix =  0.700 |ddv_scf|^2 =  1.007E-04

[...]
     freq (    5) =       7.957521 [THz] =     265.434338 [cm-1]
     freq (    6) =       8.056791 [THz] =     268.745632 [cm-1]
 **************************************************************************

     Calculation of q =   -0.3333333  -1.0000000   0.0000000
 
     G-vector sticks info
     --------------------
     sticks:   dense  smooth     PW     G-vecs:    dense   smooth      PW
     Sum        1045    1045    361                22419    22419    4477
 

     Title: 
     phonon                                                                     


     bravais-lattice index     =            2
     lattice parameter (alat)  =      10.7466  a.u.
     unit-cell volume          =     310.2790 (a.u.)^3
     number of atoms/cell      =            2
     number of atomic types    =            1
     number of electrons       =         8.00
     number of Kohn-Sham states=            8
     kinetic-energy cutoff     =      66.0000  Ry
     charge density cutoff     =     264.0000  Ry
     Exchange-correlation= PBESOL
                           (   1   4  10   8   0   0   0)

     celldm(1)=  10.746593  celldm(2)=   0.000000  celldm(3)=   0.000000
     celldm(4)=   0.000000  celldm(5)=   0.000000  celldm(6)=   0.000000

     crystal axes: (cart. coord. in units of alat)
               a(1) = (  -0.500000   0.000000   0.500000 )  
               a(2) = (   0.000000   0.500000   0.500000 )  
               a(3) = (  -0.500000   0.500000   0.000000 )  

     reciprocal axes: (cart. coord. in units 2 pi/alat)
               b(1) = ( -1.000000 -1.000000  1.000000 )  
               b(2) = (  1.000000  1.000000  1.000000 )  
               b(3) = ( -1.000000  1.000000 -1.000000 )  


     PseudoPot. # 1 for Ge read from file:
     /scratch1/fanchem/Ge/pp/Ge.pbesol-n-kjpaw_psl.1.0.0.UPF
     MD5 check sum: ba6169c2b85c6e6c9360c21392c70c8c
     Pseudo is Projector augmented-wave + core cor, Zval =  4.0
     Generated using "atomic" code by A. Dal Corso v.6.3
     Shape of augmentation charge: PSQ
     Using radial grid of 1207 points,  4 beta functions with: 
                l(1) =   0
                l(2) =   0
                l(3) =   1
                l(4) =   1
     Q(r) pseudized with 0 coefficients 


     atomic species   valence    mass     pseudopotential
        Ge             4.00    72.64000     Ge( 1.00)

     48 Sym. Ops., with inversion, found



   Cartesian axes

     site n.     atom                  positions (alat units)
         1           Ge  tau(   1) = (   0.0000000   0.0000000   0.0000000  )
         2           Ge  tau(   2) = (  -0.2500000   0.2500000   0.2500000  )

     number of k points=  2320  Gaussian smearing, width (Ry)=  0.0200

     Number of k-points >= 100: set verbosity='high' to print them.

     Dense  grid:    22419 G-vectors     FFT dimensions: (  40,  40,  40)

     Estimated max dynamical RAM per process >      12.99 MB

     Estimated total dynamical RAM >       1.22 GB

     The potential is recalculated from file :
     ./_ph0/ge.q_16/ge.save/charge-density

     Starting wfcs are    8 atomic wfcs
     Checking if some PAW data can be deallocated... 

     Band Structure Calculation
     Davidson diagonalization with overlap

     ethr =  1.25E-10,  avg # of iterations = 15.0

     total cpu time spent up to now is       96.4 secs

     End of band structure calculation

     Number of k-points >= 100: set verbosity='high' to print the bands.

     the Fermi energy is     5.5827 ev

     Writing output data file ./_ph0/ge.q_16/ge.save/

     phonon                                                                     

     bravais-lattice index     =            2
     lattice parameter (alat)  =      10.7466  a.u.
     unit-cell volume          =     310.2790 (a.u.)^3
     number of atoms/cell      =            2
     number of atomic types    =            1
     kinetic-energy cut-off    =      66.0000  Ry
     charge density cut-off    =     264.0000  Ry
     convergence threshold     =      1.0E-22
     beta                      =       0.7000
     number of iterations used =            4
     Exchange-correlation= PBESOL
                           (   1   4  10   8   0   0   0)


     celldm(1)=   10.74659  celldm(2)=    0.00000  celldm(3)=    0.00000
     celldm(4)=    0.00000  celldm(5)=    0.00000  celldm(6)=    0.00000

     crystal axes: (cart. coord. in units of alat)
               a(1) = ( -0.5000  0.0000  0.5000 )  
               a(2) = (  0.0000  0.5000  0.5000 )  
               a(3) = ( -0.5000  0.5000  0.0000 )  

     reciprocal axes: (cart. coord. in units 2 pi/alat)
               b(1) = ( -1.0000 -1.0000  1.0000 )  
               b(2) = (  1.0000  1.0000  1.0000 )  
               b(3) = ( -1.0000  1.0000 -1.0000 )  


     Atoms inside the unit cell: 

     Cartesian axes

     site n.  atom      mass           positions (alat units)
        1     Ge  72.6400   tau(    1) = (    0.00000    0.00000    0.00000  )
        2     Ge  72.6400   tau(    2) = (   -0.25000    0.25000    0.25000  )

     Computing dynamical matrix for 
                    q = (  -0.3333333  -1.0000000   0.0000000 )
 
      4 Sym.Ops. (no q -> -q+G )


     G cutoff =  772.2996  (  22419 G-vectors)     FFT grid: ( 40, 40, 40)

     number of k points=  2320  Gaussian smearing, width (Ry)=  0.0200

     PseudoPot. # 1 for Ge read from file:
     /scratch1/fanchem/Ge/pp/Ge.pbesol-n-kjpaw_psl.1.0.0.UPF
     MD5 check sum: ba6169c2b85c6e6c9360c21392c70c8c
     Pseudo is Projector augmented-wave + core cor, Zval =  4.0
     Generated using "atomic" code by A. Dal Corso v.6.3
     Shape of augmentation charge: PSQ
     Using radial grid of 1207 points,  4 beta functions with: 
                l(1) =   0
                l(2) =   0
                l(3) =   1
                l(4) =   1
     Q(r) pseudized with 0 coefficients 



     Atomic displacements:
     There are    3 irreducible representations

     Representation     1      2 modes -  To be done

     Representation     2      2 modes -  To be done

     Representation     3      2 modes -  To be done



     Alpha used in Ewald sum =   2.8000
     PHONON       :  31m52.46s CPU  39m26.27s WALL



     Representation #   1 modes #   1   2

     Self-consistent Calculation

      iter #   1 total cpu time :  2368.4 secs   av.it.:   4.5
      thresh= 1.000E-02 alpha_mix =  0.700 |ddv_scf|^2 =  3.424E-07

      iter #   2 total cpu time :  2371.4 secs   av.it.:   9.0
      thresh= 5.852E-05 alpha_mix =  0.700 |ddv_scf|^2 =  3.803E-07

      iter #   3 total cpu time :  2374.2 secs   av.it.:   8.4
      thresh= 6.166E-05 alpha_mix =  0.700 |ddv_scf|^2 =  4.106E-09

      iter #   4 total cpu time :  2377.1 secs   av.it.:   8.7
      thresh= 6.408E-06 alpha_mix =  0.700 |ddv_scf|^2 =  2.587E-10

      iter #   5 total cpu time :  2380.3 secs   av.it.:   8.7
      thresh= 1.609E-06 alpha_mix =  0.700 |ddv_scf|^2 =  3.387E-12

      iter #   6 total cpu time :  2383.3 secs   av.it.:   8.5
      thresh= 1.840E-07 alpha_mix =  0.700 |ddv_scf|^2 =  4.341E-14

      iter #   7 total cpu time :  2386.2 secs   av.it.:   8.7
      thresh= 2.084E-08 alpha_mix =  0.700 |ddv_scf|^2 =  1.462E-15

      iter #   8 total cpu time :  2389.0 secs   av.it.:   8.7
      thresh= 3.824E-09 alpha_mix =  0.700 |ddv_scf|^2 =  6.031E-17

      iter #   9 total cpu time :  2392.3 secs   av.it.:   8.9
      thresh= 7.766E-10 alpha_mix =  0.700 |ddv_scf|^2 =  3.340E-17

      iter #  10 total cpu time :  2395.6 secs   av.it.:   8.4
      thresh= 5.780E-10 alpha_mix =  0.700 |ddv_scf|^2 =  3.196E-18

      iter #  11 total cpu time :  2398.5 secs   av.it.:   8.6
      thresh= 1.788E-10 alpha_mix =  0.700 |ddv_scf|^2 =  2.683E-19

      iter #  12 total cpu time :  2401.7 secs   av.it.:   8.6
      thresh= 5.180E-11 alpha_mix =  0.700 |ddv_scf|^2 =  1.296E-20

      iter #  13 total cpu time :  2404.8 secs   av.it.:   8.8
      thresh= 1.138E-11 alpha_mix =  0.700 |ddv_scf|^2 =  2.934E-21

      iter #  14 total cpu time :  2407.9 secs   av.it.:   8.7
      thresh= 5.417E-12 alpha_mix =  0.700 |ddv_scf|^2 =  3.555E-22

      iter #  15 total cpu time :  2410.6 secs   av.it.:   8.6
      thresh= 1.885E-12 alpha_mix =  0.700 |ddv_scf|^2 =  2.155E-23

     End of self-consistent calculation

     Convergence has been achieved 


     Representation #   2 modes #   3   4

     Self-consistent Calculation

      iter #   1 total cpu time :  2413.4 secs   av.it.:   4.8
      thresh= 1.000E-02 alpha_mix =  0.700 |ddv_scf|^2 =  6.172E-07

      iter #   2 total cpu time :  2416.3 secs   av.it.:   9.0
      thresh= 7.856E-05 alpha_mix =  0.700 |ddv_scf|^2 =  7.338E-07

      iter #   3 total cpu time :  2419.2 secs   av.it.:   8.4
      thresh= 8.566E-05 alpha_mix =  0.700 |ddv_scf|^2 =  6.312E-09

      iter #   4 total cpu time :  2422.2 secs   av.it.:   8.7
      thresh= 7.945E-06 alpha_mix =  0.700 |ddv_scf|^2 =  2.684E-10

      iter #   5 total cpu time :  2425.3 secs   av.it.:   8.7
      thresh= 1.638E-06 alpha_mix =  0.700 |ddv_scf|^2 =  3.556E-12

      iter #   6 total cpu time :  2428.3 secs   av.it.:   8.5
      thresh= 1.886E-07 alpha_mix =  0.700 |ddv_scf|^2 =  7.694E-14

      iter #   7 total cpu time :  2431.4 secs   av.it.:   8.8
      thresh= 2.774E-08 alpha_mix =  0.700 |ddv_scf|^2 =  2.751E-15

      iter #   8 total cpu time :  2434.3 secs   av.it.:   8.8
      thresh= 5.245E-09 alpha_mix =  0.700 |ddv_scf|^2 =  8.650E-17

      iter #   9 total cpu time :  2437.3 secs   av.it.:   8.9
      thresh= 9.301E-10 alpha_mix =  0.700 |ddv_scf|^2 =  6.080E-17

      iter #  10 total cpu time :  2440.3 secs   av.it.:   8.5
      thresh= 7.797E-10 alpha_mix =  0.700 |ddv_scf|^2 =  4.677E-18

      iter #  11 total cpu time :  2443.4 secs   av.it.:   8.7
      thresh= 2.163E-10 alpha_mix =  0.700 |ddv_scf|^2 =  5.680E-19

      iter #  12 total cpu time :  2446.2 secs   av.it.:   8.6
      thresh= 7.536E-11 alpha_mix =  0.700 |ddv_scf|^2 =  1.258E-20

      iter #  13 total cpu time :  2449.2 secs   av.it.:   9.0
      thresh= 1.122E-11 alpha_mix =  0.700 |ddv_scf|^2 =  2.778E-21

      iter #  14 total cpu time :  2452.3 secs   av.it.:   8.8
      thresh= 5.270E-12 alpha_mix =  0.700 |ddv_scf|^2 =  4.270E-22

      iter #  15 total cpu time :  2455.0 secs   av.it.:   8.6
      thresh= 2.066E-12 alpha_mix =  0.700 |ddv_scf|^2 =  2.124E-23

     End of self-consistent calculation

     Convergence has been achieved 


     Representation #   3 modes #   5   6

     Self-consistent Calculation

      iter #   1 total cpu time :  2457.8 secs   av.it.:   4.8
      thresh= 1.000E-02 alpha_mix =  0.700 |ddv_scf|^2 =  7.574E-07

      iter #   2 total cpu time :  2460.7 secs   av.it.:   9.0
      thresh= 8.703E-05 alpha_mix =  0.700 |ddv_scf|^2 =  7.818E-07

      iter #   3 total cpu time :  2463.4 secs   av.it.:   8.4
      thresh= 8.842E-05 alpha_mix =  0.700 |ddv_scf|^2 =  1.027E-08

      iter #   4 total cpu time :  2466.5 secs   av.it.:   8.6
      thresh= 1.013E-05 alpha_mix =  0.700 |ddv_scf|^2 =  2.790E-10

      iter #   5 total cpu time :  2469.4 secs   av.it.:   8.8
      thresh= 1.670E-06 alpha_mix =  0.700 |ddv_scf|^2 =  3.318E-12

      iter #   6 total cpu time :  2472.4 secs   av.it.:   8.4
      thresh= 1.822E-07 alpha_mix =  0.700 |ddv_scf|^2 =  6.764E-14

      iter #   7 total cpu time :  2475.4 secs   av.it.:   8.6
      thresh= 2.601E-08 alpha_mix =  0.700 |ddv_scf|^2 =  1.052E-15

      iter #   8 total cpu time :  2478.5 secs   av.it.:   8.9
      thresh= 3.243E-09 alpha_mix =  0.700 |ddv_scf|^2 =  1.171E-16

      iter #   9 total cpu time :  2481.6 secs   av.it.:   8.7
      thresh= 1.082E-09 alpha_mix =  0.700 |ddv_scf|^2 =  3.647E-17

      iter #  10 total cpu time :  2484.7 secs   av.it.:   8.5
      thresh= 6.039E-10 alpha_mix =  0.700 |ddv_scf|^2 =  3.856E-18

      iter #  11 total cpu time :  2487.7 secs   av.it.:   8.7
      thresh= 1.964E-10 alpha_mix =  0.700 |ddv_scf|^2 =  5.406E-19

      iter #  12 total cpu time :  2490.7 secs   av.it.:   8.7
      thresh= 7.353E-11 alpha_mix =  0.700 |ddv_scf|^2 =  3.364E-20

      iter #  13 total cpu time :  2493.6 secs   av.it.:   8.7
      thresh= 1.834E-11 alpha_mix =  0.700 |ddv_scf|^2 =  7.038E-21

      iter #  14 total cpu time :  2496.4 secs   av.it.:   8.5
      thresh= 8.389E-12 alpha_mix =  0.700 |ddv_scf|^2 =  2.115E-22

      iter #  15 total cpu time :  2498.9 secs   av.it.:   8.6
      thresh= 1.454E-12 alpha_mix =  0.700 |ddv_scf|^2 =  2.736E-23

     End of self-consistent calculation

     Convergence has been achieved 
 
     Number of q in the star =   12
     List of q in the star:
          1  -0.333333333  -1.000000000   0.000000000
          2   0.000000000  -1.000000000  -0.333333333
          3   0.000000000  -1.000000000   0.333333333
          4   0.333333333  -1.000000000   0.000000000
          5  -1.000000000   0.000000000  -0.333333333
          6   1.000000000   0.000000000   0.333333333
          7   0.000000000   0.333333333   1.000000000
          8   0.000000000  -0.333333333  -1.000000000
          9  -1.000000000  -0.333333333   0.000000000
         10   1.000000000   0.333333333   0.000000000
         11  -0.333333333   0.000000000   1.000000000
         12   0.333333333   0.000000000   1.000000000

     Diagonalizing the dynamical matrix

     q = (   -0.333333333  -1.000000000   0.000000000 ) 

 **************************************************************************
     freq (    1) =       2.827622 [THz] =      94.319324 [cm-1]
     freq (    2) =       2.827622 [THz] =      94.319324 [cm-1]
     freq (    3) =       6.157001 [THz] =     205.375460 [cm-1]
     freq (    4) =       6.157001 [THz] =     205.375460 [cm-1]
     freq (    5) =       7.922237 [THz] =     264.257395 [cm-1]
     freq (    6) =       7.922237 [THz] =     264.257395 [cm-1]
 **************************************************************************
 
     init_run     :      5.13s CPU      7.13s WALL (      15 calls)
     electrons    :     82.61s CPU     84.50s WALL (      15 calls)

     Called by init_run:
     wfcinit      :      0.00s CPU      0.24s WALL (      15 calls)
     potinit      :      1.40s CPU      3.14s WALL (      15 calls)
     hinit0       :      3.21s CPU      3.22s WALL (      15 calls)

     Called by electrons:
     c_bands      :     82.51s CPU     84.40s WALL (      15 calls)
     v_of_rho     :      0.49s CPU      0.54s WALL (      16 calls)
     newd         :      0.02s CPU      0.02s WALL (      16 calls)
     PAW_pot      :      0.17s CPU      0.18s WALL (      16 calls)

     Called by c_bands:
     init_us_2    :     11.97s CPU     12.23s WALL (   20959 calls)
     cegterg      :     55.17s CPU     55.75s WALL (     447 calls)

     Called by *egterg:
     cdiaghg      :      1.09s CPU      1.12s WALL (    6641 calls)
     h_psi        :   1063.72s CPU   1080.06s WALL (  217931 calls)
     s_psi        :     36.66s CPU     37.82s WALL (  448829 calls)
     g_psi        :      0.70s CPU      0.72s WALL (    6207 calls)

     Called by h_psi:
     h_psi:calbec :     25.90s CPU     26.23s WALL (  217931 calls)
     vloc_psi     :   1013.45s CPU   1028.99s WALL (  217931 calls)
     add_vuspsi   :     18.59s CPU     18.94s WALL (  217931 calls)

     General routines
     calbec       :     49.13s CPU     50.18s WALL (  478516 calls)
     fft          :     12.38s CPU     12.52s WALL (   20784 calls)
     ffts         :      0.98s CPU      1.02s WALL (    1886 calls)
     fftw         :   1070.28s CPU   1090.90s WALL ( 2040928 calls)
     davcio       :     15.25s CPU    187.31s WALL (  111725 calls)
 
     Parallel routines
 
     PHONON       :  33m39.41s CPU  41m40.49s WALL

     INITIALIZATION: 
     phq_setup    :      1.40s CPU      2.32s WALL (      16 calls)
     phq_init     :     36.80s CPU     39.69s WALL (      16 calls)
 
     phq_init     :     36.80s CPU     39.69s WALL (      16 calls)
     set_drhoc    :     17.36s CPU     17.42s WALL (      48 calls)
     init_vloc    :      0.02s CPU      0.02s WALL (      16 calls)
     init_us_1    :      2.76s CPU      2.77s WALL (      16 calls)
     newd         :      0.02s CPU      0.02s WALL (      16 calls)
     dvanqq       :      3.92s CPU      3.97s WALL (      16 calls)
     drho         :     11.48s CPU     13.08s WALL (      16 calls)
 
     DYNAMICAL MATRIX:
     dynmat0      :     12.92s CPU     13.73s WALL (      16 calls)
     phqscf       :   1889.23s CPU   2348.26s WALL (      16 calls)
     dynmatrix    :      0.46s CPU      1.59s WALL (      16 calls)
 
     phqscf       :   1889.23s CPU   2348.26s WALL (      16 calls)
     solve_linter :   1885.29s CPU   2330.90s WALL (      76 calls)
     drhodv       :      3.32s CPU      4.89s WALL (      76 calls)
 
     dynmat0      :     12.92s CPU     13.73s WALL (      16 calls)
     dynmat_us    :      0.60s CPU      0.74s WALL (      16 calls)
     d2ionq       :      0.08s CPU      0.08s WALL (      16 calls)
     dynmatcc     :     11.82s CPU     11.86s WALL (      16 calls)
 
     dynmat_us    :      0.60s CPU      0.74s WALL (      16 calls)
     addusdynmat  :      0.00s CPU      0.00s WALL (      16 calls)
 
     phqscf       :   1889.23s CPU   2348.26s WALL (      16 calls)
     solve_linter :   1885.29s CPU   2330.90s WALL (      76 calls)
 
     solve_linter :   1885.29s CPU   2330.90s WALL (      76 calls)
     dvqpsi_us    :     16.17s CPU     16.62s WALL (    1314 calls)
     ortho        :      9.83s CPU     10.10s WALL (   20055 calls)
     cgsolve      :   1141.97s CPU   1161.45s WALL (   20055 calls)
     incdrhoscf   :    131.82s CPU    135.82s WALL (   20055 calls)
     addusddens   :     29.21s CPU     33.51s WALL (    1192 calls)
     vpsifft      :    110.69s CPU    117.23s WALL (   18741 calls)
     dv_of_drho   :     33.38s CPU     34.06s WALL (    1338 calls)
     mix_pot      :      3.73s CPU    172.83s WALL (    1116 calls)
     ef_shift     :      0.10s CPU      0.12s WALL (      21 calls)
     localdos     :      0.16s CPU      0.16s WALL (       2 calls)
     psymdvscf    :     16.71s CPU     16.84s WALL (    1116 calls)
     newdq        :     31.98s CPU     32.21s WALL (    1116 calls)
     adddvscf     :      6.72s CPU      6.82s WALL (   18741 calls)
     drhodvus     :      1.54s CPU      3.87s WALL (      76 calls)
 
     dvqpsi_us    :     16.17s CPU     16.62s WALL (    1314 calls)
     dvqpsi_us_on :      1.55s CPU      1.56s WALL (    1314 calls)
 
     cgsolve      :   1141.97s CPU   1161.45s WALL (   20055 calls)
     ch_psi       :   1111.26s CPU   1129.49s WALL (  210843 calls)
 
     ch_psi       :   1111.26s CPU   1129.49s WALL (  210843 calls)
     h_psi        :   1063.72s CPU   1080.06s WALL (  217931 calls)
     last         :     68.45s CPU     69.85s WALL (  210843 calls)
 
     h_psi        :   1063.72s CPU   1080.06s WALL (  217931 calls)
     add_vuspsi   :     18.59s CPU     18.94s WALL (  217931 calls)
 
     incdrhoscf   :    131.82s CPU    135.82s WALL (   20055 calls)
     addusdbec    :      4.06s CPU      4.10s WALL (   21369 calls)
 
     drhodvus     :      1.54s CPU      3.87s WALL (      76 calls)
 
      General routines
     calbec       :     49.13s CPU     50.18s WALL (  478516 calls)
     fft          :     12.38s CPU     12.52s WALL (   20784 calls)
     ffts         :      0.98s CPU      1.02s WALL (    1886 calls)
     fftw         :   1070.28s CPU   1090.90s WALL ( 2040928 calls)
     davcio       :     15.25s CPU    187.31s WALL (  111725 calls)
     write_rec    :      2.03s CPU    146.30s WALL (    1192 calls)
 
 
     PHONON       :  33m39.41s CPU  41m40.49s WALL

 
   This run was terminated on:  10:49:47  16Oct2022            

=------------------------------------------------------------------------------=
   JOB DONE.
=------------------------------------------------------------------------------=
