
     Program PWSCF v.6.6 starts on 22Mar2022 at 15:29: 0 

     This program is part of the open-source Quantum ESPRESSO suite
     for quantum simulation of materials; please cite
         "P. Giannozzi et al., J. Phys.:Condens. Matter 21 395502 (2009);
         "P. Giannozzi et al., J. Phys.:Condens. Matter 29 465901 (2017);
          URL http://www.quantum-espresso.org", 
     in publications or presentations arising from this work. More details at
     http://www.quantum-espresso.org/quote

     Parallel version (MPI), running on    40 processors

     MPI processes distributed on     1 nodes
     R & G space division:  proc/nbgrp/npool/nimage =      40
     Fft bands division:     nmany     =       1
     Waiting for input...
     Reading input from standard input
Warning: card &CELL ignored
Warning: card PRESS_CONV_THR=0.1 ignored
Warning: card / ignored

     Current dimensions of program PWSCF are:
     Max number of different atomic species (ntypx) = 10
     Max number of k-points (npk) =  40000
     Max angular momentum in pseudopotentials (lmaxx) =  3
     file Rb.pbe-spn-kjpaw_psl.1.0.0.UPF: wavefunction(s)  4S renormalized
     file Br.pbe-n-kjpaw_psl.1.0.0.UPF: wavefunction(s)  4S 4P renormalized

     gamma-point specific algorithms are used

     Subspace diagonalization in iterative solution of the eigenvalue problem:
     one sub-group per band group will be used
     scalapack distributed-memory algorithm (size of sub-group:  6*  6 procs)

 
     Parallelization info
     --------------------
     sticks:   dense  smooth     PW     G-vecs:    dense   smooth      PW
     Min         998     998    248               131788   131788   16474
     Max        1000    1000    250               131800   131800   16488
     Sum       39961   39961   9997              5271719  5271719  659301
 


     bravais-lattice index     =            0
     lattice parameter (alat)  =      46.8669  a.u.
     unit-cell volume          =   72791.9532 (a.u.)^3
     number of atoms/cell      =          250
     number of atomic types    =            2
     number of electrons       =      2000.00
     number of Kohn-Sham states=         1000
     kinetic-energy cutoff     =      66.0000  Ry
     charge density cutoff     =     264.0000  Ry
     convergence threshold     =      1.0E-16
     mixing beta               =       0.7000
     number of iterations used =            8  plain     mixing
     Exchange-correlation= SLA PW PBX PBC
                           (   1   4   3   4   0   0   0)

     celldm(1)=  46.866889  celldm(2)=   0.000000  celldm(3)=   0.000000
     celldm(4)=   0.000000  celldm(5)=   0.000000  celldm(6)=   0.000000

     crystal axes: (cart. coord. in units of alat)
               a(1) = (  -0.707107   0.000000   0.707107 )  
               a(2) = (   0.000000   0.707107   0.707107 )  
               a(3) = (  -0.707107   0.707107   0.000000 )  

     reciprocal axes: (cart. coord. in units 2 pi/alat)
               b(1) = ( -0.707107 -0.707107  0.707107 )  
               b(2) = (  0.707107  0.707107  0.707107 )  
               b(3) = ( -0.707107  0.707107 -0.707107 )  


     PseudoPot. # 1 for Rb read from file:
     /scratch1/fanchem/RbBr/pp/Rb.pbe-spn-kjpaw_psl.1.0.0.UPF
     MD5 check sum: a11e6fb9d11e64d6427b9eb26aa4a0b1
     Pseudo is Projector augmented-wave + core cor, Zval =  9.0
     Generated using "atomic" code by A. Dal Corso v.6.2.2
     Shape of augmentation charge: PSQ
     Using radial grid of 1219 points,  6 beta functions with: 
                l(1) =   0
                l(2) =   0
                l(3) =   1
                l(4) =   1
                l(5) =   2
                l(6) =   2
     Q(r) pseudized with 0 coefficients 


     PseudoPot. # 2 for Br read from file:
     /scratch1/fanchem/RbBr/pp/Br.pbe-n-kjpaw_psl.1.0.0.UPF
     MD5 check sum: b00de77caabc69c0a6b76eb37264f235
     Pseudo is Projector augmented-wave + core cor, Zval =  7.0
     Generated using "atomic" code by A. Dal Corso v.6.3
     Shape of augmentation charge: PSQ
     Using radial grid of 1213 points,  4 beta functions with: 
                l(1) =   0
                l(2) =   0
                l(3) =   1
                l(4) =   1
     Q(r) pseudized with 0 coefficients 


     atomic species   valence    mass     pseudopotential
        Rb             9.00    85.46780     Rb( 1.00)
        Br             7.00    79.90400     Br( 1.00)

     No symmetry found


                                    s                        frac. trans.

      isym =  1     identity                                     

 cryst.   s( 1) = (     1          0          0      )
                  (     0          1          0      )
                  (     0          0          1      )

 cart.    s( 1) = (  1.0000000  0.0000000  0.0000000 )
                  (  0.0000000  1.0000000  0.0000000 )
                  (  0.0000000  0.0000000  1.0000000 )


   Cartesian axes

     site n.     atom                  positions (alat units)
         1           Rb  tau(   1) = (   0.0004032   0.0000000   0.0000000  )
         2           Br  tau(   2) = (  -0.1414214   0.1414214   0.1414214  )
         3           Rb  tau(   3) = (  -0.1414214   0.0000000   0.1414214  )
         4           Br  tau(   4) = (  -0.2828427   0.1414214   0.2828427  )
         5           Rb  tau(   5) = (  -0.2828427   0.0000000   0.2828427  )
         6           Br  tau(   6) = (  -0.4242641   0.1414214   0.4242641  )
         7           Rb  tau(   7) = (  -0.4242641   0.0000000   0.4242641  )
         8           Br  tau(   8) = (  -0.5656854   0.1414214   0.5656854  )
         9           Rb  tau(   9) = (  -0.5656854   0.0000000   0.5656854  )
        10           Br  tau(  10) = (  -0.7071068   0.1414214   0.7071068  )
        11           Rb  tau(  11) = (   0.0000000   0.1414214   0.1414214  )
        12           Br  tau(  12) = (  -0.1414214   0.2828427   0.2828427  )
        13           Rb  tau(  13) = (  -0.1414214   0.1418246   0.2828427  )
        14           Br  tau(  14) = (  -0.2828427   0.2828427   0.4242641  )
        15           Rb  tau(  15) = (  -0.2828427   0.1414214   0.4242641  )
        16           Br  tau(  16) = (  -0.4242641   0.2828427   0.5656854  )
        17           Rb  tau(  17) = (  -0.4242641   0.1414214   0.5656854  )
        18           Br  tau(  18) = (  -0.5656854   0.2828427   0.7071068  )
        19           Rb  tau(  19) = (  -0.5656854   0.1414214   0.7071068  )
        20           Br  tau(  20) = (  -0.7071068   0.2828427   0.8485281  )
        21           Rb  tau(  21) = (   0.0000000   0.2828427   0.2828427  )
        22           Br  tau(  22) = (  -0.1414214   0.4242641   0.4242641  )
        23           Rb  tau(  23) = (  -0.1414214   0.2828427   0.4242641  )
        24           Br  tau(  24) = (  -0.2828427   0.4242641   0.5656854  )
        25           Rb  tau(  25) = (  -0.2828427   0.2828427   0.5656854  )
        26           Br  tau(  26) = (  -0.4242641   0.4242641   0.7071068  )
        27           Rb  tau(  27) = (  -0.4242641   0.2828427   0.7071068  )
        28           Br  tau(  28) = (  -0.5656854   0.4242641   0.8485281  )
        29           Rb  tau(  29) = (  -0.5656854   0.2828427   0.8485281  )
        30           Br  tau(  30) = (  -0.7071068   0.4242641   0.9899495  )
        31           Rb  tau(  31) = (   0.0000000   0.4242641   0.4242641  )
        32           Br  tau(  32) = (  -0.1414214   0.5656854   0.5656854  )
        33           Rb  tau(  33) = (  -0.1414214   0.4242641   0.5656854  )
        34           Br  tau(  34) = (  -0.2828427   0.5656854   0.7071068  )
        35           Rb  tau(  35) = (  -0.2828427   0.4242641   0.7071068  )
        36           Br  tau(  36) = (  -0.4242641   0.5656854   0.8485281  )
        37           Rb  tau(  37) = (  -0.4242641   0.4242641   0.8485281  )
        38           Br  tau(  38) = (  -0.5656854   0.5656854   0.9899495  )
        39           Rb  tau(  39) = (  -0.5656854   0.4242641   0.9899495  )
        40           Br  tau(  40) = (  -0.7071068   0.5656854   1.1313708  )
        41           Rb  tau(  41) = (   0.0000000   0.5656854   0.5656854  )
        42           Br  tau(  42) = (  -0.1414214   0.7071068   0.7071068  )
        43           Rb  tau(  43) = (  -0.1414214   0.5656854   0.7071068  )
        44           Br  tau(  44) = (  -0.2828427   0.7071068   0.8485281  )
        45           Rb  tau(  45) = (  -0.2828427   0.5656854   0.8485281  )
        46           Br  tau(  46) = (  -0.4242641   0.7071068   0.9899495  )
        47           Rb  tau(  47) = (  -0.4242641   0.5656854   0.9899495  )
        48           Br  tau(  48) = (  -0.5656854   0.7071068   1.1313708  )
        49           Rb  tau(  49) = (  -0.5656854   0.5656854   1.1313708  )
        50           Br  tau(  50) = (  -0.7071068   0.7071068   1.2727922  )
        51           Rb  tau(  51) = (  -0.1414214   0.1414214   0.0000000  )
        52           Br  tau(  52) = (  -0.2828427   0.2828427   0.1414214  )
        53           Rb  tau(  53) = (  -0.2828427   0.1414214   0.1414214  )
        54           Br  tau(  54) = (  -0.4242641   0.2828427   0.2828427  )
        55           Rb  tau(  55) = (  -0.4242641   0.1414214   0.2828427  )
        56           Br  tau(  56) = (  -0.5656854   0.2828427   0.4242641  )
        57           Rb  tau(  57) = (  -0.5656854   0.1414214   0.4242641  )
        58           Br  tau(  58) = (  -0.7071068   0.2828427   0.5656854  )
        59           Rb  tau(  59) = (  -0.7071068   0.1414214   0.5656854  )
        60           Br  tau(  60) = (  -0.8485281   0.2828427   0.7071068  )
        61           Rb  tau(  61) = (  -0.1414214   0.2828427   0.1414214  )
        62           Br  tau(  62) = (  -0.2828427   0.4242641   0.2828427  )
        63           Rb  tau(  63) = (  -0.2828427   0.2828427   0.2828427  )
        64           Br  tau(  64) = (  -0.4242641   0.4242641   0.4242641  )
        65           Rb  tau(  65) = (  -0.4242641   0.2828427   0.4242641  )
        66           Br  tau(  66) = (  -0.5656854   0.4242641   0.5656854  )
        67           Rb  tau(  67) = (  -0.5656854   0.2828427   0.5656854  )
        68           Br  tau(  68) = (  -0.7071068   0.4242641   0.7071068  )
        69           Rb  tau(  69) = (  -0.7071068   0.2828427   0.7071068  )
        70           Br  tau(  70) = (  -0.8485281   0.4242641   0.8485281  )
        71           Rb  tau(  71) = (  -0.1414214   0.4242641   0.2828427  )
        72           Br  tau(  72) = (  -0.2828427   0.5656854   0.4242641  )
        73           Rb  tau(  73) = (  -0.2828427   0.4242641   0.4242641  )
        74           Br  tau(  74) = (  -0.4242641   0.5656854   0.5656854  )
        75           Rb  tau(  75) = (  -0.4242641   0.4242641   0.5656854  )
        76           Br  tau(  76) = (  -0.5656854   0.5656854   0.7071068  )
        77           Rb  tau(  77) = (  -0.5656854   0.4242641   0.7071068  )
        78           Br  tau(  78) = (  -0.7071068   0.5656854   0.8485281  )
        79           Rb  tau(  79) = (  -0.7071068   0.4242641   0.8485281  )
        80           Br  tau(  80) = (  -0.8485281   0.5656854   0.9899495  )
        81           Rb  tau(  81) = (  -0.1414214   0.5656854   0.4242641  )
        82           Br  tau(  82) = (  -0.2828427   0.7071068   0.5656854  )
        83           Rb  tau(  83) = (  -0.2828427   0.5656854   0.5656854  )
        84           Br  tau(  84) = (  -0.4242641   0.7071068   0.7071068  )
        85           Rb  tau(  85) = (  -0.4242641   0.5656854   0.7071068  )
        86           Br  tau(  86) = (  -0.5656854   0.7071068   0.8485281  )
        87           Rb  tau(  87) = (  -0.5656854   0.5656854   0.8485281  )
        88           Br  tau(  88) = (  -0.7071068   0.7071068   0.9899495  )
        89           Rb  tau(  89) = (  -0.7071068   0.5656854   0.9899495  )
        90           Br  tau(  90) = (  -0.8485281   0.7071068   1.1313708  )
        91           Rb  tau(  91) = (  -0.1414214   0.7071068   0.5656854  )
        92           Br  tau(  92) = (  -0.2828427   0.8485281   0.7071068  )
        93           Rb  tau(  93) = (  -0.2828427   0.7071068   0.7071068  )
        94           Br  tau(  94) = (  -0.4242641   0.8485281   0.8485281  )
        95           Rb  tau(  95) = (  -0.4242641   0.7071068   0.8485281  )
        96           Br  tau(  96) = (  -0.5656854   0.8485281   0.9899495  )
        97           Rb  tau(  97) = (  -0.5656854   0.7071068   0.9899495  )
        98           Br  tau(  98) = (  -0.7071068   0.8485281   1.1313708  )
        99           Rb  tau(  99) = (  -0.7071068   0.7071068   1.1313708  )
       100           Br  tau( 100) = (  -0.8485281   0.8485281   1.2727922  )
       101           Rb  tau( 101) = (  -0.2828427   0.2828427   0.0000000  )
       102           Br  tau( 102) = (  -0.4242641   0.4242641   0.1414214  )
       103           Rb  tau( 103) = (  -0.4242641   0.2828427   0.1414214  )
       104           Br  tau( 104) = (  -0.5656854   0.4242641   0.2828427  )
       105           Rb  tau( 105) = (  -0.5656854   0.2828427   0.2828427  )
       106           Br  tau( 106) = (  -0.7071068   0.4242641   0.4242641  )
       107           Rb  tau( 107) = (  -0.7071068   0.2828427   0.4242641  )
       108           Br  tau( 108) = (  -0.8485281   0.4242641   0.5656854  )
       109           Rb  tau( 109) = (  -0.8485281   0.2828427   0.5656854  )
       110           Br  tau( 110) = (  -0.9899495   0.4242641   0.7071068  )
       111           Rb  tau( 111) = (  -0.2828427   0.4242641   0.1414214  )
       112           Br  tau( 112) = (  -0.4242641   0.5656854   0.2828427  )
       113           Rb  tau( 113) = (  -0.4242641   0.4242641   0.2828427  )
       114           Br  tau( 114) = (  -0.5656854   0.5656854   0.4242641  )
       115           Rb  tau( 115) = (  -0.5656854   0.4242641   0.4242641  )
       116           Br  tau( 116) = (  -0.7071068   0.5656854   0.5656854  )
       117           Rb  tau( 117) = (  -0.7071068   0.4242641   0.5656854  )
       118           Br  tau( 118) = (  -0.8485281   0.5656854   0.7071068  )
       119           Rb  tau( 119) = (  -0.8485281   0.4242641   0.7071068  )
       120           Br  tau( 120) = (  -0.9899495   0.5656854   0.8485281  )
       121           Rb  tau( 121) = (  -0.2828427   0.5656854   0.2828427  )
       122           Br  tau( 122) = (  -0.4242641   0.7071068   0.4242641  )
       123           Rb  tau( 123) = (  -0.4242641   0.5656854   0.4242641  )
       124           Br  tau( 124) = (  -0.5656854   0.7071068   0.5656854  )
       125           Rb  tau( 125) = (  -0.5656854   0.5656854   0.5656854  )
       126           Br  tau( 126) = (  -0.7071068   0.7071068   0.7071068  )
       127           Rb  tau( 127) = (  -0.7071068   0.5656854   0.7071068  )
       128           Br  tau( 128) = (  -0.8485281   0.7071068   0.8485281  )
       129           Rb  tau( 129) = (  -0.8485281   0.5656854   0.8485281  )
       130           Br  tau( 130) = (  -0.9899495   0.7071068   0.9899495  )
       131           Rb  tau( 131) = (  -0.2828427   0.7071068   0.4242641  )
       132           Br  tau( 132) = (  -0.4242641   0.8485281   0.5656854  )
       133           Rb  tau( 133) = (  -0.4242641   0.7071068   0.5656854  )
       134           Br  tau( 134) = (  -0.5656854   0.8485281   0.7071068  )
       135           Rb  tau( 135) = (  -0.5656854   0.7071068   0.7071068  )
       136           Br  tau( 136) = (  -0.7071068   0.8485281   0.8485281  )
       137           Rb  tau( 137) = (  -0.7071068   0.7071068   0.8485281  )
       138           Br  tau( 138) = (  -0.8485281   0.8485281   0.9899495  )
       139           Rb  tau( 139) = (  -0.8485281   0.7071068   0.9899495  )
       140           Br  tau( 140) = (  -0.9899495   0.8485281   1.1313708  )
       141           Rb  tau( 141) = (  -0.2828427   0.8485281   0.5656854  )
       142           Br  tau( 142) = (  -0.4242641   0.9899495   0.7071068  )
       143           Rb  tau( 143) = (  -0.4242641   0.8485281   0.7071068  )
       144           Br  tau( 144) = (  -0.5656854   0.9899495   0.8485281  )
       145           Rb  tau( 145) = (  -0.5656854   0.8485281   0.8485281  )
       146           Br  tau( 146) = (  -0.7071068   0.9899495   0.9899495  )
       147           Rb  tau( 147) = (  -0.7071068   0.8485281   0.9899495  )
       148           Br  tau( 148) = (  -0.8485281   0.9899495   1.1313708  )
       149           Rb  tau( 149) = (  -0.8485281   0.8485281   1.1313708  )
       150           Br  tau( 150) = (  -0.9899495   0.9899495   1.2727922  )
       151           Rb  tau( 151) = (  -0.4242641   0.4242641   0.0000000  )
       152           Br  tau( 152) = (  -0.5656854   0.5656854   0.1414214  )
       153           Rb  tau( 153) = (  -0.5656854   0.4242641   0.1414214  )
       154           Br  tau( 154) = (  -0.7071068   0.5656854   0.2828427  )
       155           Rb  tau( 155) = (  -0.7071068   0.4242641   0.2828427  )
       156           Br  tau( 156) = (  -0.8485281   0.5656854   0.4242641  )
       157           Rb  tau( 157) = (  -0.8485281   0.4242641   0.4242641  )
       158           Br  tau( 158) = (  -0.9899495   0.5656854   0.5656854  )
       159           Rb  tau( 159) = (  -0.9899495   0.4242641   0.5656854  )
       160           Br  tau( 160) = (  -1.1313708   0.5656854   0.7071068  )
       161           Rb  tau( 161) = (  -0.4242641   0.5656854   0.1414214  )
       162           Br  tau( 162) = (  -0.5656854   0.7071068   0.2828427  )
       163           Rb  tau( 163) = (  -0.5656854   0.5656854   0.2828427  )
       164           Br  tau( 164) = (  -0.7071068   0.7071068   0.4242641  )
       165           Rb  tau( 165) = (  -0.7071068   0.5656854   0.4242641  )
       166           Br  tau( 166) = (  -0.8485281   0.7071068   0.5656854  )
       167           Rb  tau( 167) = (  -0.8485281   0.5656854   0.5656854  )
       168           Br  tau( 168) = (  -0.9899495   0.7071068   0.7071068  )
       169           Rb  tau( 169) = (  -0.9899495   0.5656854   0.7071068  )
       170           Br  tau( 170) = (  -1.1313708   0.7071068   0.8485281  )
       171           Rb  tau( 171) = (  -0.4242641   0.7071068   0.2828427  )
       172           Br  tau( 172) = (  -0.5656854   0.8485281   0.4242641  )
       173           Rb  tau( 173) = (  -0.5656854   0.7071068   0.4242641  )
       174           Br  tau( 174) = (  -0.7071068   0.8485281   0.5656854  )
       175           Rb  tau( 175) = (  -0.7071068   0.7071068   0.5656854  )
       176           Br  tau( 176) = (  -0.8485281   0.8485281   0.7071068  )
       177           Rb  tau( 177) = (  -0.8485281   0.7071068   0.7071068  )
       178           Br  tau( 178) = (  -0.9899495   0.8485281   0.8485281  )
       179           Rb  tau( 179) = (  -0.9899495   0.7071068   0.8485281  )
       180           Br  tau( 180) = (  -1.1313708   0.8485281   0.9899495  )
       181           Rb  tau( 181) = (  -0.4242641   0.8485281   0.4242641  )
       182           Br  tau( 182) = (  -0.5656854   0.9899495   0.5656854  )
       183           Rb  tau( 183) = (  -0.5656854   0.8485281   0.5656854  )
       184           Br  tau( 184) = (  -0.7071068   0.9899495   0.7071068  )
       185           Rb  tau( 185) = (  -0.7071068   0.8485281   0.7071068  )
       186           Br  tau( 186) = (  -0.8485281   0.9899495   0.8485281  )
       187           Rb  tau( 187) = (  -0.8485281   0.8485281   0.8485281  )
       188           Br  tau( 188) = (  -0.9899495   0.9899495   0.9899495  )
       189           Rb  tau( 189) = (  -0.9899495   0.8485281   0.9899495  )
       190           Br  tau( 190) = (  -1.1313708   0.9899495   1.1313708  )
       191           Rb  tau( 191) = (  -0.4242641   0.9899495   0.5656854  )
       192           Br  tau( 192) = (  -0.5656854   1.1313708   0.7071068  )
       193           Rb  tau( 193) = (  -0.5656854   0.9899495   0.7071068  )
       194           Br  tau( 194) = (  -0.7071068   1.1313708   0.8485281  )
       195           Rb  tau( 195) = (  -0.7071068   0.9899495   0.8485281  )
       196           Br  tau( 196) = (  -0.8485281   1.1313708   0.9899495  )
       197           Rb  tau( 197) = (  -0.8485281   0.9899495   0.9899495  )
       198           Br  tau( 198) = (  -0.9899495   1.1313708   1.1313708  )
       199           Rb  tau( 199) = (  -0.9899495   0.9899495   1.1313708  )
       200           Br  tau( 200) = (  -1.1313708   1.1313708   1.2727922  )
       201           Rb  tau( 201) = (  -0.5656854   0.5656854   0.0000000  )
       202           Br  tau( 202) = (  -0.7071068   0.7071068   0.1414214  )
       203           Rb  tau( 203) = (  -0.7071068   0.5656854   0.1414214  )
       204           Br  tau( 204) = (  -0.8485281   0.7071068   0.2828427  )
       205           Rb  tau( 205) = (  -0.8485281   0.5656854   0.2828427  )
       206           Br  tau( 206) = (  -0.9899495   0.7071068   0.4242641  )
       207           Rb  tau( 207) = (  -0.9899495   0.5656854   0.4242641  )
       208           Br  tau( 208) = (  -1.1313708   0.7071068   0.5656854  )
       209           Rb  tau( 209) = (  -1.1313708   0.5656854   0.5656854  )
       210           Br  tau( 210) = (  -1.2727922   0.7071068   0.7071068  )
       211           Rb  tau( 211) = (  -0.5656854   0.7071068   0.1414214  )
       212           Br  tau( 212) = (  -0.7071068   0.8485281   0.2828427  )
       213           Rb  tau( 213) = (  -0.7071068   0.7071068   0.2828427  )
       214           Br  tau( 214) = (  -0.8485281   0.8485281   0.4242641  )
       215           Rb  tau( 215) = (  -0.8485281   0.7071068   0.4242641  )
       216           Br  tau( 216) = (  -0.9899495   0.8485281   0.5656854  )
       217           Rb  tau( 217) = (  -0.9899495   0.7071068   0.5656854  )
       218           Br  tau( 218) = (  -1.1313708   0.8485281   0.7071068  )
       219           Rb  tau( 219) = (  -1.1313708   0.7071068   0.7071068  )
       220           Br  tau( 220) = (  -1.2727922   0.8485281   0.8485281  )
       221           Rb  tau( 221) = (  -0.5656854   0.8485281   0.2828427  )
       222           Br  tau( 222) = (  -0.7071068   0.9899495   0.4242641  )
       223           Rb  tau( 223) = (  -0.7071068   0.8485281   0.4242641  )
       224           Br  tau( 224) = (  -0.8485281   0.9899495   0.5656854  )
       225           Rb  tau( 225) = (  -0.8485281   0.8485281   0.5656854  )
       226           Br  tau( 226) = (  -0.9899495   0.9899495   0.7071068  )
       227           Rb  tau( 227) = (  -0.9899495   0.8485281   0.7071068  )
       228           Br  tau( 228) = (  -1.1313708   0.9899495   0.8485281  )
       229           Rb  tau( 229) = (  -1.1313708   0.8485281   0.8485281  )
       230           Br  tau( 230) = (  -1.2727922   0.9899495   0.9899495  )
       231           Rb  tau( 231) = (  -0.5656854   0.9899495   0.4242641  )
       232           Br  tau( 232) = (  -0.7071068   1.1313708   0.5656854  )
       233           Rb  tau( 233) = (  -0.7071068   0.9899495   0.5656854  )
       234           Br  tau( 234) = (  -0.8485281   1.1313708   0.7071068  )
       235           Rb  tau( 235) = (  -0.8485281   0.9899495   0.7071068  )
       236           Br  tau( 236) = (  -0.9899495   1.1313708   0.8485281  )
       237           Rb  tau( 237) = (  -0.9899495   0.9899495   0.8485281  )
       238           Br  tau( 238) = (  -1.1313708   1.1313708   0.9899495  )
       239           Rb  tau( 239) = (  -1.1313708   0.9899495   0.9899495  )
       240           Br  tau( 240) = (  -1.2727922   1.1313708   1.1313708  )
       241           Rb  tau( 241) = (  -0.5656854   1.1313708   0.5656854  )
       242           Br  tau( 242) = (  -0.7071068   1.2727922   0.7071068  )
       243           Rb  tau( 243) = (  -0.7071068   1.1313708   0.7071068  )
       244           Br  tau( 244) = (  -0.8485281   1.2727922   0.8485281  )
       245           Rb  tau( 245) = (  -0.8485281   1.1313708   0.8485281  )
       246           Br  tau( 246) = (  -0.9899495   1.2727922   0.9899495  )
       247           Rb  tau( 247) = (  -0.9899495   1.1313708   0.9899495  )
       248           Br  tau( 248) = (  -1.1313708   1.2727922   1.1313708  )
       249           Rb  tau( 249) = (  -1.1313708   1.1313708   1.1313708  )
       250           Br  tau( 250) = (  -1.2727922   1.2727922   1.2727922  )

   Crystallographic axes

     site n.     atom                  positions (cryst. coord.)
         1           Rb  tau(   1) = ( -0.0002851  0.0002851 -0.0002851  )
         2           Br  tau(   2) = (  0.1000000  0.1000000  0.1000000  )
         3           Rb  tau(   3) = (  0.2000000  0.0000000  0.0000000  )
         4           Br  tau(   4) = (  0.3000000  0.1000000  0.1000000  )
         5           Rb  tau(   5) = (  0.4000000  0.0000000  0.0000000  )
         6           Br  tau(   6) = (  0.5000000  0.1000000  0.1000000  )
         7           Rb  tau(   7) = (  0.6000000  0.0000000  0.0000000  )
         8           Br  tau(   8) = (  0.7000000  0.1000000  0.1000000  )
         9           Rb  tau(   9) = (  0.8000000  0.0000000  0.0000000  )
        10           Br  tau(  10) = (  0.9000000  0.1000000  0.1000000  )
        11           Rb  tau(  11) = (  0.0000000  0.2000000  0.0000000  )
        12           Br  tau(  12) = (  0.1000000  0.3000000  0.1000000  )
        13           Rb  tau(  13) = (  0.1997149  0.2002851  0.0002851  )
        14           Br  tau(  14) = (  0.3000000  0.3000000  0.1000000  )
        15           Rb  tau(  15) = (  0.4000000  0.2000000 -0.0000000  )
        16           Br  tau(  16) = (  0.5000000  0.3000000  0.1000000  )
        17           Rb  tau(  17) = (  0.6000000  0.2000000 -0.0000000  )
        18           Br  tau(  18) = (  0.7000000  0.3000000  0.1000000  )
        19           Rb  tau(  19) = (  0.8000000  0.2000000  0.0000000  )
        20           Br  tau(  20) = (  0.9000000  0.3000000  0.1000000  )
        21           Rb  tau(  21) = (  0.0000000  0.4000000  0.0000000  )
        22           Br  tau(  22) = (  0.1000000  0.5000000  0.1000000  )
        23           Rb  tau(  23) = (  0.2000000  0.4000000 -0.0000000  )
        24           Br  tau(  24) = (  0.3000000  0.5000000  0.1000000  )
        25           Rb  tau(  25) = (  0.4000000  0.4000000  0.0000000  )
        26           Br  tau(  26) = (  0.5000000  0.5000000  0.1000000  )
        27           Rb  tau(  27) = (  0.6000000  0.4000000  0.0000000  )
        28           Br  tau(  28) = (  0.7000000  0.5000000  0.1000000  )
        29           Rb  tau(  29) = (  0.8000000  0.4000000 -0.0000000  )
        30           Br  tau(  30) = (  0.9000000  0.5000000  0.1000000  )
        31           Rb  tau(  31) = (  0.0000000  0.6000000  0.0000000  )
        32           Br  tau(  32) = (  0.1000000  0.7000000  0.1000000  )
        33           Rb  tau(  33) = (  0.2000000  0.6000000 -0.0000000  )
        34           Br  tau(  34) = (  0.3000000  0.7000000  0.1000000  )
        35           Rb  tau(  35) = (  0.4000000  0.6000000  0.0000000  )
        36           Br  tau(  36) = (  0.5000000  0.7000000  0.1000000  )
        37           Rb  tau(  37) = (  0.6000000  0.6000000  0.0000000  )
        38           Br  tau(  38) = (  0.7000000  0.7000000  0.1000000  )
        39           Rb  tau(  39) = (  0.8000000  0.6000000  0.0000000  )
        40           Br  tau(  40) = (  0.9000000  0.7000000  0.1000000  )
        41           Rb  tau(  41) = (  0.0000000  0.8000000  0.0000000  )
        42           Br  tau(  42) = (  0.1000000  0.9000000  0.1000000  )
        43           Rb  tau(  43) = (  0.2000000  0.8000000  0.0000000  )
        44           Br  tau(  44) = (  0.3000000  0.9000000  0.1000000  )
        45           Rb  tau(  45) = (  0.4000000  0.8000000 -0.0000000  )
        46           Br  tau(  46) = (  0.5000000  0.9000000  0.1000000  )
        47           Rb  tau(  47) = (  0.6000000  0.8000000  0.0000000  )
        48           Br  tau(  48) = (  0.7000000  0.9000000  0.1000000  )
        49           Rb  tau(  49) = (  0.8000000  0.8000000  0.0000000  )
        50           Br  tau(  50) = (  0.9000000  0.9000000  0.1000000  )
        51           Rb  tau(  51) = (  0.0000000  0.0000000  0.2000000  )
        52           Br  tau(  52) = (  0.1000000  0.1000000  0.3000000  )
        53           Rb  tau(  53) = (  0.2000000  0.0000000  0.2000000  )
        54           Br  tau(  54) = (  0.3000000  0.1000000  0.3000000  )
        55           Rb  tau(  55) = (  0.4000000  0.0000000  0.2000000  )
        56           Br  tau(  56) = (  0.5000000  0.1000000  0.3000000  )
        57           Rb  tau(  57) = (  0.6000000  0.0000000  0.2000000  )
        58           Br  tau(  58) = (  0.7000000  0.1000000  0.3000000  )
        59           Rb  tau(  59) = (  0.8000000  0.0000000  0.2000000  )
        60           Br  tau(  60) = (  0.9000000  0.1000000  0.3000000  )
        61           Rb  tau(  61) = (  0.0000000  0.2000000  0.2000000  )
        62           Br  tau(  62) = (  0.1000000  0.3000000  0.3000000  )
        63           Rb  tau(  63) = (  0.2000000  0.2000000  0.2000000  )
        64           Br  tau(  64) = (  0.3000000  0.3000000  0.3000000  )
        65           Rb  tau(  65) = (  0.4000000  0.2000000  0.2000000  )
        66           Br  tau(  66) = (  0.5000000  0.3000000  0.3000000  )
        67           Rb  tau(  67) = (  0.6000000  0.2000000  0.2000000  )
        68           Br  tau(  68) = (  0.7000000  0.3000000  0.3000000  )
        69           Rb  tau(  69) = (  0.8000000  0.2000000  0.2000000  )
        70           Br  tau(  70) = (  0.9000000  0.3000000  0.3000000  )
        71           Rb  tau(  71) = ( -0.0000000  0.4000000  0.2000000  )
        72           Br  tau(  72) = (  0.1000000  0.5000000  0.3000000  )
        73           Rb  tau(  73) = (  0.2000000  0.4000000  0.2000000  )
        74           Br  tau(  74) = (  0.3000000  0.5000000  0.3000000  )
        75           Rb  tau(  75) = (  0.4000000  0.4000000  0.2000000  )
        76           Br  tau(  76) = (  0.5000000  0.5000000  0.3000000  )
        77           Rb  tau(  77) = (  0.6000000  0.4000000  0.2000000  )
        78           Br  tau(  78) = (  0.7000000  0.5000000  0.3000000  )
        79           Rb  tau(  79) = (  0.8000000  0.4000000  0.2000000  )
        80           Br  tau(  80) = (  0.9000000  0.5000000  0.3000000  )
        81           Rb  tau(  81) = ( -0.0000000  0.6000000  0.2000000  )
        82           Br  tau(  82) = (  0.1000000  0.7000000  0.3000000  )
        83           Rb  tau(  83) = (  0.2000000  0.6000000  0.2000000  )
        84           Br  tau(  84) = (  0.3000000  0.7000000  0.3000000  )
        85           Rb  tau(  85) = (  0.4000000  0.6000000  0.2000000  )
        86           Br  tau(  86) = (  0.5000000  0.7000000  0.3000000  )
        87           Rb  tau(  87) = (  0.6000000  0.6000000  0.2000000  )
        88           Br  tau(  88) = (  0.7000000  0.7000000  0.3000000  )
        89           Rb  tau(  89) = (  0.8000000  0.6000000  0.2000000  )
        90           Br  tau(  90) = (  0.9000000  0.7000000  0.3000000  )
        91           Rb  tau(  91) = (  0.0000000  0.8000000  0.2000000  )
        92           Br  tau(  92) = (  0.1000000  0.9000000  0.3000000  )
        93           Rb  tau(  93) = (  0.2000000  0.8000000  0.2000000  )
        94           Br  tau(  94) = (  0.3000000  0.9000000  0.3000000  )
        95           Rb  tau(  95) = (  0.4000000  0.8000000  0.2000000  )
        96           Br  tau(  96) = (  0.5000000  0.9000000  0.3000000  )
        97           Rb  tau(  97) = (  0.6000000  0.8000000  0.2000000  )
        98           Br  tau(  98) = (  0.7000000  0.9000000  0.3000000  )
        99           Rb  tau(  99) = (  0.8000000  0.8000000  0.2000000  )
       100           Br  tau( 100) = (  0.9000000  0.9000000  0.3000000  )
       101           Rb  tau( 101) = (  0.0000000  0.0000000  0.4000000  )
       102           Br  tau( 102) = (  0.1000000  0.1000000  0.5000000  )
       103           Rb  tau( 103) = (  0.2000000  0.0000000  0.4000000  )
       104           Br  tau( 104) = (  0.3000000  0.1000000  0.5000000  )
       105           Rb  tau( 105) = (  0.4000000  0.0000000  0.4000000  )
       106           Br  tau( 106) = (  0.5000000  0.1000000  0.5000000  )
       107           Rb  tau( 107) = (  0.6000000  0.0000000  0.4000000  )
       108           Br  tau( 108) = (  0.7000000  0.1000000  0.5000000  )
       109           Rb  tau( 109) = (  0.8000000  0.0000000  0.4000000  )
       110           Br  tau( 110) = (  0.9000000  0.1000000  0.5000000  )
       111           Rb  tau( 111) = ( -0.0000000  0.2000000  0.4000000  )
       112           Br  tau( 112) = (  0.1000000  0.3000000  0.5000000  )
       113           Rb  tau( 113) = (  0.2000000  0.2000000  0.4000000  )
       114           Br  tau( 114) = (  0.3000000  0.3000000  0.5000000  )
       115           Rb  tau( 115) = (  0.4000000  0.2000000  0.4000000  )
       116           Br  tau( 116) = (  0.5000000  0.3000000  0.5000000  )
       117           Rb  tau( 117) = (  0.6000000  0.2000000  0.4000000  )
       118           Br  tau( 118) = (  0.7000000  0.3000000  0.5000000  )
       119           Rb  tau( 119) = (  0.8000000  0.2000000  0.4000000  )
       120           Br  tau( 120) = (  0.9000000  0.3000000  0.5000000  )
       121           Rb  tau( 121) = (  0.0000000  0.4000000  0.4000000  )
       122           Br  tau( 122) = (  0.1000000  0.5000000  0.5000000  )
       123           Rb  tau( 123) = (  0.2000000  0.4000000  0.4000000  )
       124           Br  tau( 124) = (  0.3000000  0.5000000  0.5000000  )
       125           Rb  tau( 125) = (  0.4000000  0.4000000  0.4000000  )
       126           Br  tau( 126) = (  0.5000000  0.5000000  0.5000000  )
       127           Rb  tau( 127) = (  0.6000000  0.4000000  0.4000000  )
       128           Br  tau( 128) = (  0.7000000  0.5000000  0.5000000  )
       129           Rb  tau( 129) = (  0.8000000  0.4000000  0.4000000  )
       130           Br  tau( 130) = (  0.9000000  0.5000000  0.5000000  )
       131           Rb  tau( 131) = (  0.0000000  0.6000000  0.4000000  )
       132           Br  tau( 132) = (  0.1000000  0.7000000  0.5000000  )
       133           Rb  tau( 133) = (  0.2000000  0.6000000  0.4000000  )
       134           Br  tau( 134) = (  0.3000000  0.7000000  0.5000000  )
       135           Rb  tau( 135) = (  0.4000000  0.6000000  0.4000000  )
       136           Br  tau( 136) = (  0.5000000  0.7000000  0.5000000  )
       137           Rb  tau( 137) = (  0.6000000  0.6000000  0.4000000  )
       138           Br  tau( 138) = (  0.7000000  0.7000000  0.5000000  )
       139           Rb  tau( 139) = (  0.8000000  0.6000000  0.4000000  )
       140           Br  tau( 140) = (  0.9000000  0.7000000  0.5000000  )
       141           Rb  tau( 141) = ( -0.0000000  0.8000000  0.4000000  )
       142           Br  tau( 142) = (  0.1000000  0.9000000  0.5000000  )
       143           Rb  tau( 143) = (  0.2000000  0.8000000  0.4000000  )
       144           Br  tau( 144) = (  0.3000000  0.9000000  0.5000000  )
       145           Rb  tau( 145) = (  0.4000000  0.8000000  0.4000000  )
       146           Br  tau( 146) = (  0.5000000  0.9000000  0.5000000  )
       147           Rb  tau( 147) = (  0.6000000  0.8000000  0.4000000  )
       148           Br  tau( 148) = (  0.7000000  0.9000000  0.5000000  )
       149           Rb  tau( 149) = (  0.8000000  0.8000000  0.4000000  )
       150           Br  tau( 150) = (  0.9000000  0.9000000  0.5000000  )
       151           Rb  tau( 151) = (  0.0000000  0.0000000  0.6000000  )
       152           Br  tau( 152) = (  0.1000000  0.1000000  0.7000000  )
       153           Rb  tau( 153) = (  0.2000000  0.0000000  0.6000000  )
       154           Br  tau( 154) = (  0.3000000  0.1000000  0.7000000  )
       155           Rb  tau( 155) = (  0.4000000  0.0000000  0.6000000  )
       156           Br  tau( 156) = (  0.5000000  0.1000000  0.7000000  )
       157           Rb  tau( 157) = (  0.6000000  0.0000000  0.6000000  )
       158           Br  tau( 158) = (  0.7000000  0.1000000  0.7000000  )
       159           Rb  tau( 159) = (  0.8000000  0.0000000  0.6000000  )
       160           Br  tau( 160) = (  0.9000000  0.1000000  0.7000000  )
       161           Rb  tau( 161) = ( -0.0000000  0.2000000  0.6000000  )
       162           Br  tau( 162) = (  0.1000000  0.3000000  0.7000000  )
       163           Rb  tau( 163) = (  0.2000000  0.2000000  0.6000000  )
       164           Br  tau( 164) = (  0.3000000  0.3000000  0.7000000  )
       165           Rb  tau( 165) = (  0.4000000  0.2000000  0.6000000  )
       166           Br  tau( 166) = (  0.5000000  0.3000000  0.7000000  )
       167           Rb  tau( 167) = (  0.6000000  0.2000000  0.6000000  )
       168           Br  tau( 168) = (  0.7000000  0.3000000  0.7000000  )
       169           Rb  tau( 169) = (  0.8000000  0.2000000  0.6000000  )
       170           Br  tau( 170) = (  0.9000000  0.3000000  0.7000000  )
       171           Rb  tau( 171) = (  0.0000000  0.4000000  0.6000000  )
       172           Br  tau( 172) = (  0.1000000  0.5000000  0.7000000  )
       173           Rb  tau( 173) = (  0.2000000  0.4000000  0.6000000  )
       174           Br  tau( 174) = (  0.3000000  0.5000000  0.7000000  )
       175           Rb  tau( 175) = (  0.4000000  0.4000000  0.6000000  )
       176           Br  tau( 176) = (  0.5000000  0.5000000  0.7000000  )
       177           Rb  tau( 177) = (  0.6000000  0.4000000  0.6000000  )
       178           Br  tau( 178) = (  0.7000000  0.5000000  0.7000000  )
       179           Rb  tau( 179) = (  0.8000000  0.4000000  0.6000000  )
       180           Br  tau( 180) = (  0.9000000  0.5000000  0.7000000  )
       181           Rb  tau( 181) = (  0.0000000  0.6000000  0.6000000  )
       182           Br  tau( 182) = (  0.1000000  0.7000000  0.7000000  )
       183           Rb  tau( 183) = (  0.2000000  0.6000000  0.6000000  )
       184           Br  tau( 184) = (  0.3000000  0.7000000  0.7000000  )
       185           Rb  tau( 185) = (  0.4000000  0.6000000  0.6000000  )
       186           Br  tau( 186) = (  0.5000000  0.7000000  0.7000000  )
       187           Rb  tau( 187) = (  0.6000000  0.6000000  0.6000000  )
       188           Br  tau( 188) = (  0.7000000  0.7000000  0.7000000  )
       189           Rb  tau( 189) = (  0.8000000  0.6000000  0.6000000  )
       190           Br  tau( 190) = (  0.9000000  0.7000000  0.7000000  )
       191           Rb  tau( 191) = (  0.0000000  0.8000000  0.6000000  )
       192           Br  tau( 192) = (  0.1000000  0.9000000  0.7000000  )
       193           Rb  tau( 193) = (  0.2000000  0.8000000  0.6000000  )
       194           Br  tau( 194) = (  0.3000000  0.9000000  0.7000000  )
       195           Rb  tau( 195) = (  0.4000000  0.8000000  0.6000000  )
       196           Br  tau( 196) = (  0.5000000  0.9000000  0.7000000  )
       197           Rb  tau( 197) = (  0.6000000  0.8000000  0.6000000  )
       198           Br  tau( 198) = (  0.7000000  0.9000000  0.7000000  )
       199           Rb  tau( 199) = (  0.8000000  0.8000000  0.6000000  )
       200           Br  tau( 200) = (  0.9000000  0.9000000  0.7000000  )
       201           Rb  tau( 201) = (  0.0000000  0.0000000  0.8000000  )
       202           Br  tau( 202) = (  0.1000000  0.1000000  0.9000000  )
       203           Rb  tau( 203) = (  0.2000000  0.0000000  0.8000000  )
       204           Br  tau( 204) = (  0.3000000  0.1000000  0.9000000  )
       205           Rb  tau( 205) = (  0.4000000  0.0000000  0.8000000  )
       206           Br  tau( 206) = (  0.5000000  0.1000000  0.9000000  )
       207           Rb  tau( 207) = (  0.6000000  0.0000000  0.8000000  )
       208           Br  tau( 208) = (  0.7000000  0.1000000  0.9000000  )
       209           Rb  tau( 209) = (  0.8000000  0.0000000  0.8000000  )
       210           Br  tau( 210) = (  0.9000000  0.1000000  0.9000000  )
       211           Rb  tau( 211) = (  0.0000000  0.2000000  0.8000000  )
       212           Br  tau( 212) = (  0.1000000  0.3000000  0.9000000  )
       213           Rb  tau( 213) = (  0.2000000  0.2000000  0.8000000  )
       214           Br  tau( 214) = (  0.3000000  0.3000000  0.9000000  )
       215           Rb  tau( 215) = (  0.4000000  0.2000000  0.8000000  )
       216           Br  tau( 216) = (  0.5000000  0.3000000  0.9000000  )
       217           Rb  tau( 217) = (  0.6000000  0.2000000  0.8000000  )
       218           Br  tau( 218) = (  0.7000000  0.3000000  0.9000000  )
       219           Rb  tau( 219) = (  0.8000000  0.2000000  0.8000000  )
       220           Br  tau( 220) = (  0.9000000  0.3000000  0.9000000  )
       221           Rb  tau( 221) = ( -0.0000000  0.4000000  0.8000000  )
       222           Br  tau( 222) = (  0.1000000  0.5000000  0.9000000  )
       223           Rb  tau( 223) = (  0.2000000  0.4000000  0.8000000  )
       224           Br  tau( 224) = (  0.3000000  0.5000000  0.9000000  )
       225           Rb  tau( 225) = (  0.4000000  0.4000000  0.8000000  )
       226           Br  tau( 226) = (  0.5000000  0.5000000  0.9000000  )
       227           Rb  tau( 227) = (  0.6000000  0.4000000  0.8000000  )
       228           Br  tau( 228) = (  0.7000000  0.5000000  0.9000000  )
       229           Rb  tau( 229) = (  0.8000000  0.4000000  0.8000000  )
       230           Br  tau( 230) = (  0.9000000  0.5000000  0.9000000  )
       231           Rb  tau( 231) = (  0.0000000  0.6000000  0.8000000  )
       232           Br  tau( 232) = (  0.1000000  0.7000000  0.9000000  )
       233           Rb  tau( 233) = (  0.2000000  0.6000000  0.8000000  )
       234           Br  tau( 234) = (  0.3000000  0.7000000  0.9000000  )
       235           Rb  tau( 235) = (  0.4000000  0.6000000  0.8000000  )
       236           Br  tau( 236) = (  0.5000000  0.7000000  0.9000000  )
       237           Rb  tau( 237) = (  0.6000000  0.6000000  0.8000000  )
       238           Br  tau( 238) = (  0.7000000  0.7000000  0.9000000  )
       239           Rb  tau( 239) = (  0.8000000  0.6000000  0.8000000  )
       240           Br  tau( 240) = (  0.9000000  0.7000000  0.9000000  )
       241           Rb  tau( 241) = (  0.0000000  0.8000000  0.8000000  )
       242           Br  tau( 242) = (  0.1000000  0.9000000  0.9000000  )
       243           Rb  tau( 243) = (  0.2000000  0.8000000  0.8000000  )
       244           Br  tau( 244) = (  0.3000000  0.9000000  0.9000000  )
       245           Rb  tau( 245) = (  0.4000000  0.8000000  0.8000000  )
       246           Br  tau( 246) = (  0.5000000  0.9000000  0.9000000  )
       247           Rb  tau( 247) = (  0.6000000  0.8000000  0.8000000  )
       248           Br  tau( 248) = (  0.7000000  0.9000000  0.9000000  )
       249           Rb  tau( 249) = (  0.8000000  0.8000000  0.8000000  )
       250           Br  tau( 250) = (  0.9000000  0.9000000  0.9000000  )

     number of k points=     1
                       cart. coord. in units 2pi/alat
        k(    1) = (   0.0000000   0.0000000   0.0000000), wk =   2.0000000

                       cryst. coord.
        k(    1) = (   0.0000000   0.0000000   0.0000000), wk =   2.0000000

     Dense  grid:  2635860 G-vectors     FFT dimensions: ( 243, 243, 243)

     Dynamical RAM for                 wfc:     125.70 MB

     Dynamical RAM for     wfc (w. buffer):     125.70 MB

     Dynamical RAM for           str. fact:       2.01 MB

     Dynamical RAM for           local pot:       0.00 MB

     Dynamical RAM for          nlocal pot:     408.53 MB

     Dynamical RAM for                qrad:       2.61 MB

     Dynamical RAM for          rho,v,vnew:      12.48 MB

     Dynamical RAM for               rhoin:       4.16 MB

     Dynamical RAM for            rho*nmix:      16.09 MB

     Dynamical RAM for           G-vectors:       4.27 MB

     Dynamical RAM for          h,s,v(r/c):       2.54 MB

     Dynamical RAM for          <psi|beta>:      24.80 MB

     Dynamical RAM for                 psi:     251.40 MB

     Dynamical RAM for                hpsi:     251.40 MB

     Dynamical RAM for                spsi:     251.40 MB

     Dynamical RAM for      wfcinit/wfcrot:     428.62 MB

     Dynamical RAM for           addusdens:     312.70 MB

     Dynamical RAM for          addusforce:     563.05 MB

     Dynamical RAM for         addusstress:     202.10 MB

     Estimated static dynamical RAM per process >     594.63 MB

     Estimated max dynamical RAM per process >       1.34 GB

     Estimated total dynamical RAM >      53.76 GB

     Check: negative core charge=   -0.000002

     Initial potential from superposition of free atoms

     starting charge 1997.14218, renormalised to 2000.00000
     Starting wfcs are 1500 randomized atomic wfcs
     Checking if some PAW data can be deallocated... 

     total cpu time spent up to now is       42.1 secs

     Self-consistent Calculation

     iteration #  1     ecut=    66.00 Ry     beta= 0.70
     Davidson diagonalization with overlap
     ethr =  1.00E-02,  avg # of iterations =  1.0

     Threshold (ethr) on eigenvalues was too large:
     Diagonalizing with lowered threshold

     Davidson diagonalization with overlap
     ethr =  4.48E-04,  avg # of iterations =  2.0

     total cpu time spent up to now is      184.9 secs

     total energy              =  -55566.22802331 Ry
     estimated scf accuracy    <       7.87048828 Ry

     iteration #  2     ecut=    66.00 Ry     beta= 0.70
     Davidson diagonalization with overlap
     ethr =  3.94E-04,  avg # of iterations =  3.0

     total cpu time spent up to now is      271.6 secs

     total energy              =  -55568.70295847 Ry
     estimated scf accuracy    <       1.98045618 Ry

     iteration #  3     ecut=    66.00 Ry     beta= 0.70
     Davidson diagonalization with overlap
     ethr =  9.90E-05,  avg # of iterations =  2.0

     total cpu time spent up to now is      356.2 secs

     total energy              =  -55569.07832600 Ry
     estimated scf accuracy    <       0.03737176 Ry

     iteration #  4     ecut=    66.00 Ry     beta= 0.70
     Davidson diagonalization with overlap
     ethr =  1.87E-06,  avg # of iterations =  3.0

     total cpu time spent up to now is      460.5 secs

     total energy              =  -55569.09078496 Ry
     estimated scf accuracy    <       0.00730269 Ry

     iteration #  5     ecut=    66.00 Ry     beta= 0.70
     Davidson diagonalization with overlap
     ethr =  3.65E-07,  avg # of iterations =  2.0

     total cpu time spent up to now is      557.0 secs

     total energy              =  -55569.09122948 Ry
     estimated scf accuracy    <       0.00072856 Ry

     iteration #  6     ecut=    66.00 Ry     beta= 0.70
     Davidson diagonalization with overlap
     ethr =  3.64E-08,  avg # of iterations =  3.0

     total cpu time spent up to now is      664.0 secs

     total energy              =  -55569.09159449 Ry
     estimated scf accuracy    <       0.00024943 Ry

     iteration #  7     ecut=    66.00 Ry     beta= 0.70
     Davidson diagonalization with overlap
     ethr =  1.25E-08,  avg # of iterations =  2.0

     total cpu time spent up to now is      744.1 secs

     total energy              =  -55569.09158809 Ry
     estimated scf accuracy    <       0.00005750 Ry

     iteration #  8     ecut=    66.00 Ry     beta= 0.70
     Davidson diagonalization with overlap
     ethr =  2.87E-09,  avg # of iterations =  2.0

     total cpu time spent up to now is      825.6 secs

     total energy              =  -55569.09158844 Ry
     estimated scf accuracy    <       0.00000954 Ry

     iteration #  9     ecut=    66.00 Ry     beta= 0.70
     Davidson diagonalization with overlap
     ethr =  4.77E-10,  avg # of iterations =  2.0

     total cpu time spent up to now is      910.4 secs

     total energy              =  -55569.09159067 Ry
     estimated scf accuracy    <       0.00000002 Ry

     iteration # 10     ecut=    66.00 Ry     beta= 0.70
     Davidson diagonalization with overlap
     ethr =  9.78E-13,  avg # of iterations =  6.0

     total cpu time spent up to now is     1051.1 secs

     total energy              =  -55569.09159071 Ry
     estimated scf accuracy    <       0.00000003 Ry

     iteration # 11     ecut=    66.00 Ry     beta= 0.70
     Davidson diagonalization with overlap
     ethr =  9.78E-13,  avg # of iterations =  2.0

     total cpu time spent up to now is     1138.0 secs

     total energy              =  -55569.09159072 Ry
     estimated scf accuracy    <          1.9E-10 Ry

     iteration # 12     ecut=    66.00 Ry     beta= 0.70
     Davidson diagonalization with overlap
     ethr =  1.00E-13,  avg # of iterations =  2.0

     total cpu time spent up to now is     1226.0 secs

     total energy              =  -55569.09159072 Ry
     estimated scf accuracy    <          1.0E-10 Ry

     iteration # 13     ecut=    66.00 Ry     beta= 0.70
     Davidson diagonalization with overlap
     ethr =  1.00E-13,  avg # of iterations =  1.0

     total cpu time spent up to now is     1296.0 secs

     total energy              =  -55569.09159072 Ry
     estimated scf accuracy    <          6.6E-11 Ry

     iteration # 14     ecut=    66.00 Ry     beta= 0.70
     Davidson diagonalization with overlap
     ethr =  1.00E-13,  avg # of iterations =  1.0

     total cpu time spent up to now is     1363.1 secs

     total energy              =  -55569.09159072 Ry
     estimated scf accuracy    <          2.9E-13 Ry

     iteration # 15     ecut=    66.00 Ry     beta= 0.70
     Davidson diagonalization with overlap
     ethr =  1.00E-13,  avg # of iterations =  1.0

     total cpu time spent up to now is     1429.9 secs

     total energy              =  -55569.09159072 Ry
     estimated scf accuracy    <          2.5E-14 Ry

     iteration # 16     ecut=    66.00 Ry     beta= 0.70
     Davidson diagonalization with overlap
     ethr =  1.00E-13,  avg # of iterations =  1.0

     total cpu time spent up to now is     1497.2 secs

     total energy              =  -55569.09159072 Ry
     estimated scf accuracy    <          1.4E-13 Ry

     iteration # 17     ecut=    66.00 Ry     beta= 0.70
     Davidson diagonalization with overlap
     ethr =  1.00E-13,  avg # of iterations =  1.0

     total cpu time spent up to now is     1564.0 secs

     total energy              =  -55569.09159072 Ry
     estimated scf accuracy    <          5.6E-14 Ry

     iteration # 18     ecut=    66.00 Ry     beta= 0.70
     Davidson diagonalization with overlap
     ethr =  1.00E-13,  avg # of iterations =  1.0

     total cpu time spent up to now is     1631.2 secs

     total energy              =  -55569.09159072 Ry
     estimated scf accuracy    <          2.6E-15 Ry

     iteration # 19     ecut=    66.00 Ry     beta= 0.70
     Davidson diagonalization with overlap
     ethr =  1.00E-13,  avg # of iterations =  1.0

     total cpu time spent up to now is     1698.1 secs

     total energy              =  -55569.09159072 Ry
     estimated scf accuracy    <          3.2E-16 Ry

     iteration # 20     ecut=    66.00 Ry     beta= 0.70
     Davidson diagonalization with overlap
     ethr =  1.00E-13,  avg # of iterations =  1.0

     total cpu time spent up to now is     1777.0 secs

     End of self-consistent calculation

          k = 0.0000 0.0000 0.0000 (329651 PWs)   bands (ev):

   -23.7699 -23.7683 -23.7679 -23.7679 -23.7678 -23.7677 -23.7677 -23.7675
   -23.7674 -23.7670 -23.7669 -23.7669 -23.7668 -23.7667 -23.7665 -23.7655
   -23.7654 -23.7654 -23.7654 -23.7651 -23.7651 -23.7651 -23.7650 -23.7650
   -23.7649 -23.7649 -23.7649 -23.7647 -23.7646 -23.7644 -23.7644 -23.7643
   -23.7642 -23.7642 -23.7641 -23.7641 -23.7641 -23.7640 -23.7640 -23.7640
   -23.7640 -23.7639 -23.7639 -23.7639 -23.7638 -23.7638 -23.7638 -23.7638
   -23.7638 -23.7638 -23.7637 -23.7637 -23.7636 -23.7636 -23.7636 -23.7635
   -23.7635 -23.7633 -23.7633 -23.7632 -23.7631 -23.7631 -23.7631 -23.7630
   -23.7629 -23.7629 -23.7629 -23.7628 -23.7628 -23.7627 -23.7627 -23.7627
   -23.7626 -23.7626 -23.7626 -23.7626 -23.7625 -23.7625 -23.7625 -23.7625
   -23.7624 -23.7624 -23.7624 -23.7624 -23.7624 -23.7623 -23.7623 -23.7623
   -23.7623 -23.7622 -23.7622 -23.7622 -23.7621 -23.7621 -23.7621 -23.7621
   -23.7620 -23.7620 -23.7620 -23.7619 -23.7619 -23.7619 -23.7619 -23.7619
   -23.7619 -23.7618 -23.7618 -23.7617 -23.7617 -23.7617 -23.7616 -23.7616
   -23.7616 -23.7615 -23.7614 -23.7614 -23.7612 -23.7612 -23.7609 -23.7608
   -23.7606 -23.7605 -23.7604 -23.7603 -23.7592 -11.3399 -11.3397 -11.3395
   -11.3394 -11.3393 -11.3392 -11.3392 -11.3390 -11.3275 -11.3261 -11.3257
   -11.3257 -11.3256 -11.3256 -11.3256 -11.3255 -11.3255 -11.3255 -11.3254
   -11.3252 -11.3242 -11.3238 -11.3236 -11.3236 -11.3234 -11.3234 -11.3230
   -11.3228 -11.3216 -11.3213 -11.3207 -11.3207 -11.3205 -11.3205 -11.3205
   -11.3204 -11.3204 -11.3204 -11.3204 -11.3203 -11.3202 -11.3202 -11.3202
   -11.3202 -11.3201 -11.3201 -11.3200 -11.3199 -11.3199 -11.3199 -11.3197
   -11.3191 -11.3176 -11.3172 -11.3171 -11.3171 -11.3169 -11.3168 -11.3159
   -11.3159 -11.3154 -11.3154 -11.3153 -11.3153 -11.3153 -11.3152 -11.3152
   -11.3152 -11.3152 -11.3152 -11.3152 -11.3152 -11.3151 -11.3151 -11.3150
   -11.3150 -11.3149 -11.3149 -11.3149 -11.3147 -11.3140 -11.3130 -11.3129
   -11.2988 -11.2986 -11.2979 -11.2978 -11.2978 -11.2978 -11.2978 -11.2977
   -11.2977 -11.2977 -11.2976 -11.2976 -11.2975 -11.2975 -11.2975 -11.2975
   -11.2974 -11.2974 -11.2973 -11.2972 -11.2972 -11.2971 -11.2962 -11.2960
   -11.2839 -11.2839 -11.2836 -11.2835 -11.2835 -11.2835 -11.2835 -11.2834
   -11.2833 -11.2833 -11.2830 -11.2825 -11.2806 -11.2806 -11.2804 -11.2803
   -11.2802 -11.2795  -7.9584  -7.9584  -7.9583  -7.9583  -7.9583  -7.9582
    -7.9582  -7.9580  -7.9580  -7.9579  -7.9579  -7.9576  -7.9377  -7.9377
    -7.9375  -7.9375  -7.9373  -7.9373  -7.9146  -7.9145  -7.9145  -7.9144
    -7.9143  -7.9143  -7.9143  -7.9143  -7.9143  -7.9142  -7.9142  -7.9142
    -7.9142  -7.9142  -7.9141  -7.9141  -7.9141  -7.9141  -7.9140  -7.9140
    -7.9139  -7.9139  -7.9139  -7.9139  -7.9135  -7.9134  -7.9134  -7.9134
    -7.9134  -7.9134  -7.9134  -7.9133  -7.9132  -7.9132  -7.9132  -7.9132
    -7.9131  -7.9131  -7.9131  -7.9131  -7.9131  -7.9130  -7.9130  -7.9129
    -7.9129  -7.9128  -7.9128  -7.9126  -7.8945  -7.8945  -7.8945  -7.8944
    -7.8944  -7.8944  -7.8943  -7.8943  -7.8943  -7.8943  -7.8943  -7.8943
    -7.8942  -7.8942  -7.8942  -7.8942  -7.8942  -7.8941  -7.8941  -7.8941
    -7.8940  -7.8940  -7.8940  -7.8940  -7.8858  -7.8858  -7.8858  -7.8858
    -7.8857  -7.8857  -7.8856  -7.8856  -7.8855  -7.8855  -7.8855  -7.8855
    -7.8791  -7.8791  -7.8791  -7.8790  -7.8790  -7.8790  -7.8789  -7.8789
    -7.8789  -7.8789  -7.8788  -7.8788  -7.8772  -7.8772  -7.8772  -7.8771
    -7.8771  -7.8771  -7.8771  -7.8771  -7.8771  -7.8771  -7.8771  -7.8771
    -7.8709  -7.8709  -7.8708  -7.8708  -7.8708  -7.8708  -7.8707  -7.8707
    -7.8707  -7.8707  -7.8706  -7.8706  -7.8679  -7.8678  -7.8678  -7.8678
    -7.8678  -7.8678  -7.8677  -7.8677  -7.8677  -7.8677  -7.8677  -7.8677
    -7.8677  -7.8677  -7.8676  -7.8676  -7.8675  -7.8675  -7.8675  -7.8675
    -7.8675  -7.8675  -7.8674  -7.8674  -7.8636  -7.8636  -7.8636  -7.8636
    -7.8636  -7.8636  -7.8635  -7.8635  -7.8635  -7.8635  -7.8634  -7.8634
    -7.8634  -7.8634  -7.8634  -7.8634  -7.8633  -7.8633  -7.8633  -7.8633
    -7.8633  -7.8632  -7.8632  -7.8632  -7.8553  -7.8552  -7.8552  -7.8550
    -7.8550  -7.8550  -7.8550  -7.8550  -7.8550  -7.8549  -7.8549  -7.8547
    -7.8529  -7.8528  -7.8528  -7.8528  -7.8527  -7.8527  -7.8526  -7.8526
    -7.8526  -7.8525  -7.8525  -7.8525  -7.8525  -7.8525  -7.8524  -7.8524
    -7.8524  -7.8523  -7.8523  -7.8523  -7.8522  -7.8522  -7.8522  -7.8520
    -7.8469  -7.8469  -7.8468  -7.8468  -7.8467  -7.8467  -7.8467  -7.8467
    -7.8467  -7.8467  -7.8466  -7.8466  -7.8465  -7.8465  -7.8465  -7.8465
    -7.8465  -7.8465  -7.8464  -7.8464  -7.8464  -7.8464  -7.8463  -7.8463
    -7.8430  -7.8430  -7.8430  -7.8430  -7.8430  -7.8430  -7.8428  -7.8428
    -7.8428  -7.8427  -7.8426  -7.8426  -7.8426  -7.8426  -7.8425  -7.8425
    -7.8391  -7.8391  -7.8391  -7.8390  -7.8390  -7.8390  -7.8389  -7.8389
    -7.8389  -7.8389  -7.8387  -7.8386  -7.8386  -7.8386  -7.8386  -7.8386
    -7.8374  -7.8373  -7.8373  -7.8373  -7.8372  -7.8372  -7.8372  -7.8372
    -7.8371  -7.8371  -7.8370  -7.8370  -7.8363  -7.8362  -7.8362  -7.8303
    -7.8303  -7.8303  -7.8303  -7.8303  -7.8303  -7.8303  -7.8303  -7.8302
    -7.8302  -7.8301  -7.8301  -7.8299  -7.8299  -7.8299  -7.8299  -7.8299
    -7.8299  -7.8297  -7.8296  -7.8296  -7.8296  -7.8295  -7.8295  -7.8289
    -7.8289  -7.8288  -7.8288  -7.8286  -7.8286  -7.8286  -7.8286  -7.8286
    -7.8285  -7.8285  -7.8285  -7.8284  -7.8284  -7.8284  -7.8284  -7.8283
    -7.8283  -7.8282  -7.8282  -7.8281  -7.8280  -7.8280  -7.8278  -7.8259
    -7.8259  -7.8257  -7.8257  -7.8257  -7.8257  -7.8256  -7.8256  -7.8232
    -7.8232  -7.8232  -7.8231  -7.8231  -7.8231  -7.8145  -7.8144  -7.8144
    -7.8143  -7.8143  -7.8143  -7.8143  -7.8142  -7.8142  -7.8142  -7.8142
    -7.8141  -7.8090  -7.8090  -7.8090  -7.8088  -7.8088  -7.8086  -7.8086
    -7.8085  -0.0045  -0.0045  -0.0045  -0.0042  -0.0042  -0.0040  -0.0040
    -0.0039   0.0895   0.0895   0.0896   0.0898   0.0901   0.0901   0.0901
     0.0901   0.0901   0.0902   0.0902   0.0903   0.0903   0.0903   0.0904
     0.0904   0.0904   0.0905   0.0905   0.0906   0.0906   0.0910   0.0910
     0.0911   0.1765   0.1767   0.1767   0.1768   0.1769   0.1769   0.1770
     0.1770   0.1770   0.1771   0.1771   0.1771   0.1771   0.1771   0.1771
     0.1772   0.1774   0.1774   0.1774   0.1775   0.1775   0.1775   0.1775
     0.1778   0.1810   0.1810   0.1811   0.1812   0.1813   0.1813   0.1813
     0.1814   0.1815   0.1815   0.1815   0.1817   0.2690   0.2691   0.2691
     0.2694   0.2694   0.2695   0.2695   0.2696   0.2696   0.2696   0.2696
     0.2696   0.2696   0.2697   0.2697   0.2697   0.2698   0.2698   0.2699
     0.2699   0.2699   0.2701   0.2702   0.2702   0.2964   0.2965   0.2966
     0.2966   0.2968   0.2968   0.3585   0.3586   0.3586   0.3586   0.3587
     0.3587   0.3913   0.3913   0.3913   0.3914   0.3914   0.3915   0.3915
     0.3917   0.3917   0.3919   0.3919   0.3922   0.4452   0.4453   0.4455
     0.4455   0.4456   0.4456   0.4456   0.4457   0.4471   0.4471   0.4472
     0.4473   0.4473   0.4474   0.4474   0.4474   0.4475   0.4475   0.4477
     0.4477   0.4937   0.4938   0.4939   0.4939   0.4939   0.4942   0.4942
     0.4942   0.4942   0.4943   0.4943   0.4943   0.4944   0.4944   0.4944
     0.4945   0.4945   0.4945   0.4945   0.4945   0.4946   0.4947   0.4948
     0.4948   0.4957   0.4958   0.4960   0.4960   0.4960   0.4960   0.4961
     0.4961   0.4961   0.4961   0.4962   0.4962   0.4962   0.4963   0.4963
     0.4963   0.4963   0.4963   0.4964   0.4964   0.4965   0.4965   0.4968
     0.4968   0.5163   0.5164   0.5164   0.5165   0.5167   0.5167   0.5167
     0.5168   0.5168   0.5168   0.5168   0.5168   0.5169   0.5169   0.5169
     0.5170   0.5170   0.5170   0.5171   0.5171   0.5171   0.5174   0.5174
     0.5177   0.5327   0.5328   0.5328   0.5328   0.5329   0.5330   0.5331
     0.5332   0.5332   0.5332   0.5333   0.5333   0.5333   0.5335   0.5335
     0.5336   0.5362   0.5363   0.5363   0.5363   0.5364   0.5365   0.5365
     0.5366   0.5366   0.5366   0.5366   0.5366   0.5366   0.5367   0.5367
     0.5367   0.5367   0.5368   0.5368   0.5368   0.5368   0.5371   0.5371
     0.5374   0.5592   0.5593   0.5594   0.5595   0.5595   0.5596   0.5596
     0.5597   0.5598   0.5598   0.5598   0.5600   0.5616   0.5617   0.5618
     0.5618   0.5619   0.5619   0.5619   0.5620   0.5620   0.5620   0.5620
     0.5620   0.5620   0.5620   0.5621   0.5621   0.5621   0.5621   0.5622
     0.5623   0.5624   0.5624   0.5625   0.5625   0.5930   0.5930   0.5931
     0.5932   0.5932   0.5932   0.5933   0.5933   0.5934   0.5934   0.5936
     0.5936   0.6209   0.6210   0.6211   0.6212   0.6213   0.6214   0.6214
     0.6214   0.6215   0.6215   0.6215   0.6215   0.6215   0.6215   0.6216
     0.6216   0.6217   0.6217   0.6218   0.6218   0.6218   0.6219   0.6220
     0.6220   0.6443   0.6443   0.6443   0.6444   0.6444   0.6444   0.6444
     0.6444   0.6444   0.6445   0.6446   0.6446   0.6589   0.6589   0.6589
     0.6589   0.6591   0.6591   0.6591   0.6591   0.6592   0.6594   0.6594
     0.6595   0.6951   0.6951   0.6951   0.6952   0.6952   0.6953   0.6954
     0.6954   0.6954   0.6954   0.6958   0.6958   0.6958   0.6960   0.6960
     0.6960   0.7352   0.7354   0.7354   0.7356   0.7356   0.7356   0.7356
     0.7356   0.7357   0.7359   0.7359   0.7361   0.8030   0.8030   0.8030

     occupation numbers 
     1.0000   1.0000   1.0000   1.0000   1.0000   1.0000   1.0000   1.0000
     1.0000   1.0000   1.0000   1.0000   1.0000   1.0000   1.0000   1.0000
     1.0000   1.0000   1.0000   1.0000   1.0000   1.0000   1.0000   1.0000
     1.0000   1.0000   1.0000   1.0000   1.0000   1.0000   1.0000   1.0000
     1.0000   1.0000   1.0000   1.0000   1.0000   1.0000   1.0000   1.0000
     1.0000   1.0000   1.0000   1.0000   1.0000   1.0000   1.0000   1.0000
     1.0000   1.0000   1.0000   1.0000   1.0000   1.0000   1.0000   1.0000
     1.0000   1.0000   1.0000   1.0000   1.0000   1.0000   1.0000   1.0000
     1.0000   1.0000   1.0000   1.0000   1.0000   1.0000   1.0000   1.0000
     1.0000   1.0000   1.0000   1.0000   1.0000   1.0000   1.0000   1.0000
     1.0000   1.0000   1.0000   1.0000   1.0000   1.0000   1.0000   1.0000
     1.0000   1.0000   1.0000   1.0000   1.0000   1.0000   1.0000   1.0000
     1.0000   1.0000   1.0000   1.0000   1.0000   1.0000   1.0000   1.0000
     1.0000   1.0000   1.0000   1.0000   1.0000   1.0000   1.0000   1.0000
     1.0000   1.0000   1.0000   1.0000   1.0000   1.0000   1.0000   1.0000
     1.0000   1.0000   1.0000   1.0000   1.0000   1.0000   1.0000   1.0000
     1.0000   1.0000   1.0000   1.0000   1.0000   1.0000   1.0000   1.0000
     1.0000   1.0000   1.0000   1.0000   1.0000   1.0000   1.0000   1.0000
     1.0000   1.0000   1.0000   1.0000   1.0000   1.0000   1.0000   1.0000
     1.0000   1.0000   1.0000   1.0000   1.0000   1.0000   1.0000   1.0000
     1.0000   1.0000   1.0000   1.0000   1.0000   1.0000   1.0000   1.0000
     1.0000   1.0000   1.0000   1.0000   1.0000   1.0000   1.0000   1.0000
     1.0000   1.0000   1.0000   1.0000   1.0000   1.0000   1.0000   1.0000
     1.0000   1.0000   1.0000   1.0000   1.0000   1.0000   1.0000   1.0000
     1.0000   1.0000   1.0000   1.0000   1.0000   1.0000   1.0000   1.0000
     1.0000   1.0000   1.0000   1.0000   1.0000   1.0000   1.0000   1.0000
     1.0000   1.0000   1.0000   1.0000   1.0000   1.0000   1.0000   1.0000
     1.0000   1.0000   1.0000   1.0000   1.0000   1.0000   1.0000   1.0000
     1.0000   1.0000   1.0000   1.0000   1.0000   1.0000   1.0000   1.0000
     1.0000   1.0000   1.0000   1.0000   1.0000   1.0000   1.0000   1.0000
     1.0000   1.0000   1.0000   1.0000   1.0000   1.0000   1.0000   1.0000
     1.0000   1.0000   1.0000   1.0000   1.0000   1.0000   1.0000   1.0000
     1.0000   1.0000   1.0000   1.0000   1.0000   1.0000   1.0000   1.0000
     1.0000   1.0000   1.0000   1.0000   1.0000   1.0000   1.0000   1.0000
     1.0000   1.0000   1.0000   1.0000   1.0000   1.0000   1.0000   1.0000
     1.0000   1.0000   1.0000   1.0000   1.0000   1.0000   1.0000   1.0000
     1.0000   1.0000   1.0000   1.0000   1.0000   1.0000   1.0000   1.0000
     1.0000   1.0000   1.0000   1.0000   1.0000   1.0000   1.0000   1.0000
     1.0000   1.0000   1.0000   1.0000   1.0000   1.0000   1.0000   1.0000
     1.0000   1.0000   1.0000   1.0000   1.0000   1.0000   1.0000   1.0000
     1.0000   1.0000   1.0000   1.0000   1.0000   1.0000   1.0000   1.0000
     1.0000   1.0000   1.0000   1.0000   1.0000   1.0000   1.0000   1.0000
     1.0000   1.0000   1.0000   1.0000   1.0000   1.0000   1.0000   1.0000
     1.0000   1.0000   1.0000   1.0000   1.0000   1.0000   1.0000   1.0000
     1.0000   1.0000   1.0000   1.0000   1.0000   1.0000   1.0000   1.0000
     1.0000   1.0000   1.0000   1.0000   1.0000   1.0000   1.0000   1.0000
     1.0000   1.0000   1.0000   1.0000   1.0000   1.0000   1.0000   1.0000
     1.0000   1.0000   1.0000   1.0000   1.0000   1.0000   1.0000   1.0000
     1.0000   1.0000   1.0000   1.0000   1.0000   1.0000   1.0000   1.0000
     1.0000   1.0000   1.0000   1.0000   1.0000   1.0000   1.0000   1.0000
     1.0000   1.0000   1.0000   1.0000   1.0000   1.0000   1.0000   1.0000
     1.0000   1.0000   1.0000   1.0000   1.0000   1.0000   1.0000   1.0000
     1.0000   1.0000   1.0000   1.0000   1.0000   1.0000   1.0000   1.0000
     1.0000   1.0000   1.0000   1.0000   1.0000   1.0000   1.0000   1.0000
     1.0000   1.0000   1.0000   1.0000   1.0000   1.0000   1.0000   1.0000
     1.0000   1.0000   1.0000   1.0000   1.0000   1.0000   1.0000   1.0000
     1.0000   1.0000   1.0000   1.0000   1.0000   1.0000   1.0000   1.0000
     1.0000   1.0000   1.0000   1.0000   1.0000   1.0000   1.0000   1.0000
     1.0000   1.0000   1.0000   1.0000   1.0000   1.0000   1.0000   1.0000
     1.0000   1.0000   1.0000   1.0000   1.0000   1.0000   1.0000   1.0000
     1.0000   1.0000   1.0000   1.0000   1.0000   1.0000   1.0000   1.0000
     1.0000   1.0000   1.0000   1.0000   1.0000   1.0000   1.0000   1.0000
     1.0000   1.0000   1.0000   1.0000   1.0000   1.0000   1.0000   1.0000
     1.0000   1.0000   1.0000   1.0000   1.0000   1.0000   1.0000   1.0000
     1.0000   1.0000   1.0000   1.0000   1.0000   1.0000   1.0000   1.0000
     1.0000   1.0000   1.0000   1.0000   1.0000   1.0000   1.0000   1.0000
     1.0000   1.0000   1.0000   1.0000   1.0000   1.0000   1.0000   1.0000
     1.0000   1.0000   1.0000   1.0000   1.0000   1.0000   1.0000   1.0000
     1.0000   1.0000   1.0000   1.0000   1.0000   1.0000   1.0000   1.0000
     1.0000   1.0000   1.0000   1.0000   1.0000   1.0000   1.0000   1.0000
     1.0000   1.0000   1.0000   1.0000   1.0000   1.0000   1.0000   1.0000
     1.0000   1.0000   1.0000   1.0000   1.0000   1.0000   1.0000   1.0000
     1.0000   1.0000   1.0000   1.0000   1.0000   1.0000   1.0000   1.0000
     1.0000   1.0000   1.0000   1.0000   1.0000   1.0000   1.0000   1.0000
     1.0000   1.0000   1.0000   1.0000   1.0000   1.0000   1.0000   1.0000
     1.0000   1.0000   1.0000   1.0000   1.0000   1.0000   1.0000   1.0000
     1.0000   1.0000   1.0000   1.0000   1.0000   1.0000   1.0000   1.0000
     1.0000   1.0000   1.0000   1.0000   1.0000   1.0000   1.0000   1.0000
     1.0000   1.0000   1.0000   1.0000   1.0000   1.0000   1.0000   1.0000
     1.0000   1.0000   1.0000   1.0000   1.0000   1.0000   1.0000   1.0000
     1.0000   1.0000   1.0000   1.0000   1.0000   1.0000   1.0000   1.0000
     1.0000   1.0000   1.0000   1.0000   1.0000   1.0000   1.0000   1.0000
     1.0000   1.0000   1.0000   1.0000   1.0000   1.0000   1.0000   1.0000
     1.0000   1.0000   1.0000   1.0000   1.0000   1.0000   1.0000   1.0000
     1.0000   1.0000   1.0000   1.0000   1.0000   1.0000   1.0000   1.0000
     1.0000   1.0000   1.0000   1.0000   1.0000   1.0000   1.0000   1.0000
     1.0000   1.0000   1.0000   1.0000   1.0000   1.0000   1.0000   1.0000
     1.0000   1.0000   1.0000   1.0000   1.0000   1.0000   1.0000   1.0000
     1.0000   1.0000   1.0000   1.0000   1.0000   1.0000   1.0000   1.0000
     1.0000   1.0000   1.0000   1.0000   1.0000   1.0000   1.0000   1.0000
     1.0000   1.0000   1.0000   1.0000   1.0000   1.0000   1.0000   1.0000
     1.0000   1.0000   1.0000   1.0000   1.0000   1.0000   1.0000   1.0000
     1.0000   1.0000   1.0000   1.0000   1.0000   1.0000   1.0000   1.0000
     1.0000   1.0000   1.0000   1.0000   1.0000   1.0000   1.0000   1.0000
     1.0000   1.0000   1.0000   1.0000   1.0000   1.0000   1.0000   1.0000
     1.0000   1.0000   1.0000   1.0000   1.0000   1.0000   1.0000   1.0000
     1.0000   1.0000   1.0000   1.0000   1.0000   1.0000   1.0000   1.0000
     1.0000   1.0000   1.0000   1.0000   1.0000   1.0000   1.0000   1.0000
     1.0000   1.0000   1.0000   1.0000   1.0000   1.0000   1.0000   1.0000
     1.0000   1.0000   1.0000   1.0000   1.0000   1.0000   1.0000   1.0000
     1.0000   1.0000   1.0000   1.0000   1.0000   1.0000   1.0000   1.0000
     1.0000   1.0000   1.0000   1.0000   1.0000   1.0000   1.0000   1.0000
     1.0000   1.0000   1.0000   1.0000   1.0000   1.0000   1.0000   1.0000
     1.0000   1.0000   1.0000   1.0000   1.0000   1.0000   1.0000   1.0000
     1.0000   1.0000   1.0000   1.0000   1.0000   1.0000   1.0000   1.0000
     1.0000   1.0000   1.0000   1.0000   1.0000   1.0000   1.0000   1.0000
     1.0000   1.0000   1.0000   1.0000   1.0000   1.0000   1.0000   1.0000
     1.0000   1.0000   1.0000   1.0000   1.0000   1.0000   1.0000   1.0000
     1.0000   1.0000   1.0000   1.0000   1.0000   1.0000   1.0000   1.0000
     1.0000   1.0000   1.0000   1.0000   1.0000   1.0000   1.0000   1.0000
     1.0000   1.0000   1.0000   1.0000   1.0000   1.0000   1.0000   1.0000
     1.0000   1.0000   1.0000   1.0000   1.0000   1.0000   1.0000   1.0000
     1.0000   1.0000   1.0000   1.0000   1.0000   1.0000   1.0000   1.0000
     1.0000   1.0000   1.0000   1.0000   1.0000   1.0000   1.0000   1.0000
     1.0000   1.0000   1.0000   1.0000   1.0000   1.0000   1.0000   1.0000
     1.0000   1.0000   1.0000   1.0000   1.0000   1.0000   1.0000   1.0000
     1.0000   1.0000   1.0000   1.0000   1.0000   1.0000   1.0000   1.0000
     1.0000   1.0000   1.0000   1.0000   1.0000   1.0000   1.0000   1.0000
     1.0000   1.0000   1.0000   1.0000   1.0000   1.0000   1.0000   1.0000
     1.0000   1.0000   1.0000   1.0000   1.0000   1.0000   1.0000   1.0000
     1.0000   1.0000   1.0000   1.0000   1.0000   1.0000   1.0000   1.0000
     1.0000   1.0000   1.0000   1.0000   1.0000   1.0000   1.0000   1.0000
     1.0000   1.0000   1.0000   1.0000   1.0000   1.0000   1.0000   1.0000
     1.0000   1.0000   1.0000   1.0000   1.0000   1.0000   1.0000   1.0000
     1.0000   1.0000   1.0000   1.0000   1.0000   1.0000   1.0000   1.0000

     highest occupied level (ev):     0.8030

!    total energy              =  -55569.09159072 Ry

     total all-electron energy =  -1396959.012481 Ry
     estimated scf accuracy    <          4.6E-17 Ry

     The total energy is the sum of the following terms:
     one-electron contribution =   -2365.66488007 Ry
     hartree contribution      =    1939.89814002 Ry
     xc contribution           =   -3512.15827487 Ry
     ewald contribution        =   -6915.17672945 Ry
     one-center paw contrib.   =  -44715.98984635 Ry
      -> PAW hartree energy AE =     152.70574044 Ry
      -> PAW hartree energy PS =    -152.16701002 Ry
      -> PAW xc energy AE      =   -1351.67536616 Ry
      -> PAW xc energy PS      =      95.89909785 Ry
      -> total E_H with PAW    =    1940.43687044 Ry
      -> total E_XC with PAW   =   -4767.93454318 Ry

     convergence has been achieved in  20 iterations

     Forces acting on atoms (cartesian axes, Ry/au):

     atom    1 type  1   force =    -0.00052625   -0.00000133    0.00000481
     atom    2 type  2   force =     0.00000137    0.00005539    0.00001204
     atom    3 type  1   force =     0.00000934    0.00001115    0.00000185
     atom    4 type  2   force =    -0.00000179    0.00004303    0.00000405
     atom    5 type  1   force =     0.00005451    0.00001116   -0.00000887
     atom    6 type  2   force =    -0.00000137    0.00000063    0.00000344
     atom    7 type  1   force =     0.00000383   -0.00000134   -0.00000423
     atom    8 type  2   force =     0.00000100   -0.00001143    0.00001226
     atom    9 type  1   force =     0.00001356   -0.00000009   -0.00005111
     atom   10 type  2   force =     0.00004351    0.00000068   -0.00000002
     atom   11 type  1   force =    -0.00001776   -0.00001593    0.00000183
     atom   12 type  2   force =     0.00000244    0.00015501    0.00000175
     atom   13 type  1   force =     0.00000199   -0.00052585   -0.00000392
     atom   14 type  2   force =     0.00001230   -0.00000088   -0.00001002
     atom   15 type  1   force =     0.00000244   -0.00001310   -0.00000199
     atom   16 type  2   force =     0.00000007   -0.00000282    0.00000159
     atom   17 type  1   force =     0.00000516    0.00000128   -0.00000306
     atom   18 type  2   force =     0.00000298   -0.00000770    0.00000142
     atom   19 type  1   force =     0.00001304    0.00004985   -0.00000000
     atom   20 type  2   force =    -0.00000839    0.00000059    0.00001436
     atom   21 type  1   force =     0.00004803    0.00000822   -0.00000300
     atom   22 type  2   force =     0.00000237   -0.00001158   -0.00001179
     atom   23 type  1   force =    -0.00000418    0.00001092    0.00005010
     atom   24 type  2   force =    -0.00000074   -0.00000574   -0.00000324
     atom   25 type  1   force =     0.00000108    0.00000059    0.00000022
     atom   26 type  2   force =    -0.00000172   -0.00000604   -0.00000083
     atom   27 type  1   force =    -0.00000047    0.00000281    0.00000051
     atom   28 type  2   force =    -0.00000320   -0.00000320    0.00000203
     atom   29 type  1   force =     0.00000171    0.00000397   -0.00000176
     atom   30 type  2   force =    -0.00000922   -0.00001114    0.00000130
     atom   31 type  1   force =     0.00000303    0.00000763    0.00000780
     atom   32 type  2   force =     0.00000136   -0.00001404   -0.00001556
     atom   33 type  1   force =     0.00000042    0.00000631    0.00000898
     atom   34 type  2   force =    -0.00001042   -0.00001404   -0.00000375
     atom   35 type  1   force =     0.00000550    0.00001045    0.00000275
     atom   36 type  2   force =    -0.00000720   -0.00000435    0.00000142
     atom   37 type  1   force =     0.00000352    0.00000513    0.00000408
     atom   38 type  2   force =    -0.00000317   -0.00000299    0.00000152
     atom   39 type  1   force =     0.00000989    0.00000332   -0.00000133
     atom   40 type  2   force =     0.00000174   -0.00000549   -0.00000129
     atom   41 type  1   force =    -0.00001717   -0.00000018    0.00000098
     atom   42 type  2   force =     0.00014701    0.00000206   -0.00000767
     atom   43 type  1   force =     0.00000933    0.00004967    0.00000588
     atom   44 type  2   force =    -0.00002118    0.00000117    0.00000035
     atom   45 type  1   force =     0.00000898    0.00001122   -0.00000176
     atom   46 type  2   force =    -0.00000856    0.00000206    0.00000503
     atom   47 type  1   force =     0.00000665   -0.00000159   -0.00000355
     atom   48 type  2   force =     0.00000259   -0.00000022    0.00000829
     atom   49 type  1   force =    -0.00000036    0.00000204   -0.00000480
     atom   50 type  2   force =     0.00004348   -0.00000022    0.00000114
     atom   51 type  1   force =     0.00000933   -0.00005171    0.00000002
     atom   52 type  2   force =     0.00001008    0.00000525    0.00001157
     atom   53 type  1   force =     0.00000421   -0.00002426   -0.00000653
     atom   54 type  2   force =     0.00000543    0.00000168   -0.00000041
     atom   55 type  1   force =     0.00000078   -0.00000045   -0.00000355
     atom   56 type  2   force =     0.00000067   -0.00000131    0.00000112
     atom   57 type  1   force =    -0.00000311   -0.00000107   -0.00000531
     atom   58 type  2   force =     0.00000367   -0.00000084   -0.00000052
     atom   59 type  1   force =    -0.00001768    0.00000114   -0.00000178
     atom   60 type  2   force =    -0.00000026    0.00000911    0.00000767
     atom   61 type  1   force =     0.00000043    0.00000688   -0.00005288
     atom   62 type  2   force =     0.00001027   -0.00000778   -0.00000206
     atom   63 type  1   force =    -0.00005188    0.00001290    0.00000172
     atom   64 type  2   force =     0.00000151   -0.00000127   -0.00000085
     atom   65 type  1   force =    -0.00000101    0.00000284   -0.00000287
     atom   66 type  2   force =     0.00000138   -0.00000253    0.00000004
     atom   67 type  1   force =    -0.00000361    0.00000524   -0.00000006
     atom   68 type  2   force =    -0.00000046    0.00000015    0.00000375
     atom   69 type  1   force =    -0.00000269    0.00000305   -0.00000480
     atom   70 type  2   force =    -0.00000098   -0.00000773    0.00001080
     atom   71 type  1   force =    -0.00000417    0.00003138   -0.00000029
     atom   72 type  2   force =    -0.00000008   -0.00000266   -0.00000598
     atom   73 type  1   force =    -0.00000688    0.00000295    0.00000308
     atom   74 type  2   force =    -0.00000262   -0.00000368   -0.00000350
     atom   75 type  1   force =    -0.00000044    0.00000440   -0.00000235
     atom   76 type  2   force =    -0.00000350   -0.00000134    0.00000082
     atom   77 type  1   force =    -0.00000389    0.00000183   -0.00000119
     atom   78 type  2   force =    -0.00000246   -0.00000237    0.00000111
     atom   79 type  1   force =     0.00000417    0.00000311   -0.00001025
     atom   80 type  2   force =    -0.00000098   -0.00000850   -0.00000210
     atom   81 type  1   force =     0.00000043    0.00000788    0.00000688
     atom   82 type  2   force =    -0.00000915   -0.00000022   -0.00001417
     atom   83 type  1   force =     0.00000366    0.00000818    0.00000930
     atom   84 type  2   force =    -0.00001096    0.00000061   -0.00000142
     atom   85 type  1   force =     0.00000747    0.00000884    0.00000120
     atom   86 type  2   force =    -0.00000449   -0.00000022    0.00000034
     atom   87 type  1   force =     0.00000463    0.00000184   -0.00000076
     atom   88 type  2   force =    -0.00000033   -0.00000188   -0.00000183
     atom   89 type  1   force =     0.00000194    0.00001025    0.00000154
     atom   90 type  2   force =    -0.00000025   -0.00000188   -0.00000816
     atom   91 type  1   force =     0.00000934    0.00000039    0.00005026
     atom   92 type  2   force =    -0.00000918    0.00001600   -0.00000001
     atom   93 type  1   force =     0.00002802   -0.00000133    0.00000480
     atom   94 type  2   force =    -0.00000347    0.00000631    0.00000266
     atom   95 type  1   force =     0.00001109   -0.00000133   -0.00000670
     atom   96 type  2   force =     0.00000054    0.00000157    0.00000152
     atom   97 type  1   force =    -0.00000250    0.00000040   -0.00000102
     atom   98 type  2   force =     0.00000364    0.00000177    0.00000062
     atom   99 type  1   force =    -0.00000323    0.00000134   -0.00000362
     atom  100 type  2   force =     0.00000136    0.00001262   -0.00001184
     atom  101 type  1   force =     0.00000366   -0.00001022   -0.00000481
     atom  102 type  2   force =     0.00000240    0.00000176   -0.00000176
     atom  103 type  1   force =    -0.00000403   -0.00000489    0.00000225
     atom  104 type  2   force =     0.00000258   -0.00000110   -0.00000110
     atom  105 type  1   force =     0.00000143   -0.00000096   -0.00000132
     atom  106 type  2   force =     0.00000274   -0.00000447    0.00000060
     atom  107 type  1   force =    -0.00000257   -0.00000165    0.00000219
     atom  108 type  2   force =    -0.00000098   -0.00000010    0.00000298
     atom  109 type  1   force =     0.00000044   -0.00000394    0.00000051
     atom  110 type  2   force =    -0.00000226    0.00000075    0.00000375
[...]
     atom  102 type  2   force =     0.00000000   -0.00000000    0.00000000
     atom  103 type  1   force =     0.00000000   -0.00000000   -0.00000000
     atom  104 type  2   force =    -0.00000000   -0.00000000    0.00000000
     atom  105 type  1   force =    -0.00000000   -0.00000000   -0.00000000
     atom  106 type  2   force =    -0.00000000    0.00000000    0.00000000
     atom  107 type  1   force =    -0.00000000   -0.00000000   -0.00000000
     atom  108 type  2   force =     0.00000000   -0.00000000   -0.00000000
     atom  109 type  1   force =    -0.00000000   -0.00000000   -0.00000000
     atom  110 type  2   force =    -0.00000000   -0.00000000   -0.00000000
     atom  111 type  1   force =    -0.00000000   -0.00000000   -0.00000000
     atom  112 type  2   force =    -0.00000000   -0.00000000    0.00000000
     atom  113 type  1   force =    -0.00000000   -0.00000000    0.00000000
     atom  114 type  2   force =    -0.00000000   -0.00000000    0.00000000
     atom  115 type  1   force =    -0.00000000    0.00000000   -0.00000000
     atom  116 type  2   force =    -0.00000000   -0.00000000   -0.00000000
     atom  117 type  1   force =    -0.00000000    0.00000000   -0.00000000
     atom  118 type  2   force =     0.00000000   -0.00000000   -0.00000000
     atom  119 type  1   force =     0.00000000   -0.00000000   -0.00000000
     atom  120 type  2   force =    -0.00000000   -0.00000000    0.00000000
     atom  121 type  1   force =    -0.00000000   -0.00000000    0.00000000
     atom  122 type  2   force =     0.00000000   -0.00000000    0.00000000
     atom  123 type  1   force =     0.00000000   -0.00000000    0.00000000
     atom  124 type  2   force =     0.00000000   -0.00000000    0.00000000
     atom  125 type  1   force =     0.00000000   -0.00000000    0.00000000
     atom  126 type  2   force =     0.00000000   -0.00000000    0.00000000
     atom  127 type  1   force =     0.00000000    0.00000000   -0.00000000
     atom  128 type  2   force =     0.00000000    0.00000000    0.00000000
     atom  129 type  1   force =     0.00000000    0.00000000   -0.00000000
     atom  130 type  2   force =     0.00000000    0.00000000    0.00000000
     atom  131 type  1   force =     0.00000000    0.00000000    0.00000000
     atom  132 type  2   force =     0.00000000    0.00000000    0.00000000
     atom  133 type  1   force =     0.00000000   -0.00000000    0.00000000
     atom  134 type  2   force =     0.00000000   -0.00000000    0.00000000
     atom  135 type  1   force =     0.00000000   -0.00000000    0.00000000
     atom  136 type  2   force =     0.00000000   -0.00000000    0.00000000
     atom  137 type  1   force =     0.00000000    0.00000000    0.00000000
     atom  138 type  2   force =     0.00000000    0.00000000    0.00000000
     atom  139 type  1   force =     0.00000000    0.00000000    0.00000000
     atom  140 type  2   force =     0.00000000   -0.00000000    0.00000000
     atom  141 type  1   force =     0.00000000   -0.00000000    0.00000000
     atom  142 type  2   force =     0.00000000   -0.00000000   -0.00000000
     atom  143 type  1   force =     0.00000000   -0.00000000    0.00000000
     atom  144 type  2   force =    -0.00000000   -0.00000000    0.00000000
     atom  145 type  1   force =     0.00000000   -0.00000000    0.00000000
     atom  146 type  2   force =     0.00000000   -0.00000000   -0.00000000
     atom  147 type  1   force =     0.00000000   -0.00000000   -0.00000000
     atom  148 type  2   force =    -0.00000000   -0.00000000   -0.00000000
     atom  149 type  1   force =    -0.00000000   -0.00000000    0.00000000
     atom  150 type  2   force =    -0.00000000   -0.00000000    0.00000000
     atom  151 type  1   force =    -0.00000000   -0.00000000   -0.00000000
     atom  152 type  2   force =    -0.00000000    0.00000000   -0.00000000
     atom  153 type  1   force =     0.00000000   -0.00000000    0.00000000
     atom  154 type  2   force =    -0.00000000   -0.00000000    0.00000000
     atom  155 type  1   force =    -0.00000000   -0.00000000   -0.00000000
     atom  156 type  2   force =    -0.00000000   -0.00000000   -0.00000000
     atom  157 type  1   force =    -0.00000000    0.00000000   -0.00000000
     atom  158 type  2   force =    -0.00000000   -0.00000000   -0.00000000
     atom  159 type  1   force =    -0.00000000   -0.00000000   -0.00000000
     atom  160 type  2   force =    -0.00000000   -0.00000000   -0.00000000
     atom  161 type  1   force =    -0.00000000    0.00000000    0.00000000
     atom  162 type  2   force =    -0.00000000   -0.00000000   -0.00000000
     atom  163 type  1   force =     0.00000000   -0.00000000   -0.00000000
     atom  164 type  2   force =    -0.00000000   -0.00000000   -0.00000000
     atom  165 type  1   force =    -0.00000000   -0.00000000    0.00000000
     atom  166 type  2   force =     0.00000000   -0.00000000   -0.00000000
     atom  167 type  1   force =     0.00000000   -0.00000000   -0.00000000
     atom  168 type  2   force =    -0.00000000    0.00000000   -0.00000000
     atom  169 type  1   force =    -0.00000000   -0.00000000   -0.00000000
     atom  170 type  2   force =    -0.00000000    0.00000000   -0.00000000
     atom  171 type  1   force =     0.00000000    0.00000000    0.00000000
     atom  172 type  2   force =     0.00000000    0.00000000   -0.00000000
     atom  173 type  1   force =     0.00000000   -0.00000000    0.00000000
     atom  174 type  2   force =    -0.00000000   -0.00000000    0.00000000
     atom  175 type  1   force =    -0.00000000   -0.00000000    0.00000000
     atom  176 type  2   force =     0.00000000    0.00000000    0.00000000
     atom  177 type  1   force =     0.00000000    0.00000000   -0.00000000
     atom  178 type  2   force =     0.00000000    0.00000000    0.00000000
     atom  179 type  1   force =    -0.00000000    0.00000000    0.00000000
     atom  180 type  2   force =     0.00000000   -0.00000000   -0.00000000
     atom  181 type  1   force =     0.00000000   -0.00000000    0.00000000
     atom  182 type  2   force =     0.00000000    0.00000000    0.00000000
     atom  183 type  1   force =     0.00000000   -0.00000000    0.00000000
     atom  184 type  2   force =    -0.00000000    0.00000000    0.00000000
     atom  185 type  1   force =     0.00000000   -0.00000000    0.00000000
     atom  186 type  2   force =     0.00000000    0.00000000    0.00000000
     atom  187 type  1   force =     0.00000000    0.00000000    0.00000000
     atom  188 type  2   force =     0.00000000    0.00000000    0.00000000
     atom  189 type  1   force =     0.00000000   -0.00000000    0.00000000
     atom  190 type  2   force =     0.00000000    0.00000000    0.00000000
     atom  191 type  1   force =     0.00000000    0.00000000    0.00000000
     atom  192 type  2   force =     0.00000000    0.00000000   -0.00000000
     atom  193 type  1   force =     0.00000000    0.00000000    0.00000000
     atom  194 type  2   force =    -0.00000000   -0.00000000    0.00000000
     atom  195 type  1   force =    -0.00000000   -0.00000000    0.00000000
     atom  196 type  2   force =    -0.00000000    0.00000000    0.00000000
     atom  197 type  1   force =    -0.00000000   -0.00000000    0.00000000
     atom  198 type  2   force =    -0.00000000    0.00000000   -0.00000000
     atom  199 type  1   force =     0.00000000    0.00000000    0.00000000
     atom  200 type  2   force =    -0.00000000   -0.00000000   -0.00000000
     atom  201 type  1   force =     0.00000000   -0.00000000   -0.00000000
     atom  202 type  2   force =     0.00000000    0.00000000   -0.00000000
     atom  203 type  1   force =    -0.00000000   -0.00000000    0.00000000
     atom  204 type  2   force =    -0.00000000   -0.00000000    0.00000000
     atom  205 type  1   force =    -0.00000000   -0.00000000    0.00000000
     atom  206 type  2   force =     0.00000000   -0.00000000   -0.00000000
     atom  207 type  1   force =    -0.00000000   -0.00000000   -0.00000000
     atom  208 type  2   force =    -0.00000000   -0.00000000   -0.00000000
     atom  209 type  1   force =    -0.00000000   -0.00000000   -0.00000000
     atom  210 type  2   force =    -0.00000000    0.00000000    0.00000000
     atom  211 type  1   force =    -0.00000000    0.00000000   -0.00000000
     atom  212 type  2   force =    -0.00000000   -0.00000000   -0.00000000
     atom  213 type  1   force =    -0.00000000   -0.00000000   -0.00000000
     atom  214 type  2   force =    -0.00000000   -0.00000000   -0.00000000
     atom  215 type  1   force =    -0.00000000   -0.00000000   -0.00000000
     atom  216 type  2   force =     0.00000000   -0.00000000   -0.00000000
     atom  217 type  1   force =    -0.00000000   -0.00000000   -0.00000000
     atom  218 type  2   force =    -0.00000000   -0.00000000   -0.00000000
     atom  219 type  1   force =    -0.00000000    0.00000000   -0.00000000
     atom  220 type  2   force =    -0.00000000   -0.00000000   -0.00000000
     atom  221 type  1   force =    -0.00000000   -0.00000000   -0.00000000
     atom  222 type  2   force =    -0.00000000    0.00000000   -0.00000000
     atom  223 type  1   force =    -0.00000000   -0.00000000   -0.00000000
     atom  224 type  2   force =    -0.00000000    0.00000000    0.00000000
     atom  225 type  1   force =    -0.00000000   -0.00000000    0.00000000
     atom  226 type  2   force =     0.00000000    0.00000000    0.00000000
     atom  227 type  1   force =     0.00000000    0.00000000   -0.00000000
     atom  228 type  2   force =     0.00000000   -0.00000000   -0.00000000
     atom  229 type  1   force =    -0.00000000   -0.00000000   -0.00000000
     atom  230 type  2   force =    -0.00000000    0.00000000   -0.00000000
     atom  231 type  1   force =     0.00000000    0.00000000    0.00000000
     atom  232 type  2   force =     0.00000000    0.00000000    0.00000000
     atom  233 type  1   force =    -0.00000000    0.00000000    0.00000000
     atom  234 type  2   force =    -0.00000000    0.00000000   -0.00000000
     atom  235 type  1   force =    -0.00000000    0.00000000    0.00000000
     atom  236 type  2   force =     0.00000000    0.00000000    0.00000000
     atom  237 type  1   force =     0.00000000    0.00000000    0.00000000
     atom  238 type  2   force =     0.00000000    0.00000000    0.00000000
     atom  239 type  1   force =     0.00000000    0.00000000    0.00000000
     atom  240 type  2   force =     0.00000000    0.00000000    0.00000000
     atom  241 type  1   force =     0.00000000    0.00000000    0.00000000
     atom  242 type  2   force =    -0.00000000    0.00000000   -0.00000000
     atom  243 type  1   force =    -0.00000000    0.00000000   -0.00000000
     atom  244 type  2   force =    -0.00000000   -0.00000000    0.00000000
     atom  245 type  1   force =    -0.00000000    0.00000000    0.00000000
     atom  246 type  2   force =    -0.00000000   -0.00000000    0.00000000
     atom  247 type  1   force =     0.00000000    0.00000000    0.00000000
     atom  248 type  2   force =     0.00000000   -0.00000000   -0.00000000
     atom  249 type  1   force =     0.00000000    0.00000000   -0.00000000
     atom  250 type  2   force =     0.00000000   -0.00000000   -0.00000000

     Total force =     0.000851     Total SCF correction =     0.000000


     Computing stress (Cartesian axis) and pressure

          total   stress  (Ry/bohr**3)                   (kbar)     P=        0.01
   0.00000007  -0.00000000   0.00000000            0.01       -0.00        0.00
  -0.00000000   0.00000007  -0.00000000           -0.00        0.01       -0.00
   0.00000000  -0.00000000   0.00000007            0.00       -0.00        0.01

     kinetic stress (kbar)   4518.29      0.00      0.00
                                0.00   4518.29      0.00
                                0.00      0.00   4518.29

     local   stress (kbar)  -2353.91      0.00     -0.00
                                0.00  -2353.91      0.00
                               -0.00      0.00  -2353.90

     nonloc. stress (kbar)   2638.82     -0.00     -0.00
                               -0.00   2638.82     -0.00
                               -0.00     -0.00   2638.82

     hartree stress (kbar)   1306.78     -0.00      0.00
                               -0.00   1306.78     -0.00
                                0.00     -0.00   1306.78

     exc-cor stress (kbar)   2434.90     -0.00     -0.00
                               -0.00   2434.90     -0.00
                               -0.00     -0.00   2434.90

     corecor stress (kbar)  -3886.59     -0.00     -0.00
                               -0.00  -3886.59     -0.00
                               -0.00     -0.00  -3886.59

     ewald   stress (kbar)  -4658.29     -0.00      0.00
                               -0.00  -4658.29     -0.00
                                0.00     -0.00  -4658.29

     hubbard stress (kbar)      0.00      0.00      0.00
                                0.00      0.00      0.00
                                0.00      0.00      0.00

     DFT-D   stress (kbar)      0.00      0.00      0.00
                                0.00      0.00      0.00
                                0.00      0.00      0.00

     XDM     stress (kbar)      0.00      0.00      0.00
                                0.00      0.00      0.00
                                0.00      0.00      0.00

     dft-nl  stress (kbar)      0.00      0.00      0.00
                                0.00      0.00      0.00
                                0.00      0.00      0.00

     TS-vdW  stress (kbar)      0.00      0.00      0.00
                                0.00      0.00      0.00
                                0.00      0.00      0.00



     Writing output data file ./rbbr.save/
 
     init_run     :     39.90s CPU     41.03s WALL (       1 calls)
     electrons    :   1705.35s CPU   1735.13s WALL (       1 calls)
     forces       :     13.28s CPU     13.90s WALL (       1 calls)
     stress       :    329.25s CPU    332.46s WALL (       1 calls)

     Called by init_run:
     wfcinit      :     36.22s CPU     37.08s WALL (       1 calls)
     wfcinit:atom :      0.11s CPU      0.18s WALL (       1 calls)
     wfcinit:wfcr :     35.53s CPU     36.17s WALL (       1 calls)
     potinit      :      1.15s CPU      1.19s WALL (       1 calls)
     hinit0       :      0.90s CPU      0.95s WALL (       1 calls)

     Called by electrons:
     c_bands      :   1406.76s CPU   1427.64s WALL (      21 calls)
     sum_band     :    265.13s CPU    270.84s WALL (      21 calls)
     v_of_rho     :      7.18s CPU      7.29s WALL (      21 calls)
     v_h          :      0.83s CPU      0.85s WALL (      21 calls)
     v_xc         :      6.95s CPU      7.05s WALL (      23 calls)
     newd         :     11.88s CPU     14.68s WALL (      21 calls)
     PAW_pot      :     13.82s CPU     13.99s WALL (      21 calls)
     mix_rho      :      1.74s CPU      1.79s WALL (      21 calls)

     Called by c_bands:
     init_us_2    :      8.41s CPU      8.85s WALL (      43 calls)
     regterg      :   1375.12s CPU   1395.52s WALL (      21 calls)

     Called by sum_band:
     sum_band:wei :      0.00s CPU      0.00s WALL (      21 calls)
     sum_band:loo :    251.07s CPU    253.90s WALL (      21 calls)
     sum_band:buf :      0.00s CPU      0.00s WALL (      21 calls)
     sum_band:ini :      4.14s CPU      4.18s WALL (      21 calls)
     sum_band:cal :     48.04s CPU     48.78s WALL (      21 calls)
     sum_band:bec :      0.22s CPU      0.25s WALL (      21 calls)
     addusdens    :     11.69s CPU     14.51s WALL (      21 calls)
     addusd:skk   :      1.64s CPU      3.19s WALL (      42 calls)
     addusd:dgemm :      4.91s CPU      6.06s WALL (      42 calls)
     addusd:qvan2 :      4.82s CPU      4.87s WALL (      42 calls)

     Called by *egterg:
     rdiaghg      :      9.16s CPU      9.72s WALL (      60 calls)
     regterg:over :     81.03s CPU     82.29s WALL (      40 calls)
     regterg:upda :     64.45s CPU     65.00s WALL (      40 calls)
     regterg:last :    102.26s CPU    103.17s WALL (      37 calls)
     rdiaghg:chol :      0.76s CPU      0.77s WALL (      60 calls)
     rdiaghg:inve :      0.57s CPU      0.58s WALL (      60 calls)
     rdiaghg:para :      1.66s CPU      2.03s WALL (     120 calls)
     h_psi        :   1003.49s CPU   1013.87s WALL (      62 calls)
     s_psi        :    112.06s CPU    113.32s WALL (      62 calls)
     g_psi        :      1.49s CPU      1.51s WALL (      40 calls)

     Called by h_psi:
     h_psi:calbec :    119.77s CPU    120.94s WALL (      62 calls)
     vloc_psi     :    767.08s CPU    774.99s WALL (      62 calls)
     add_vuspsi   :    112.90s CPU    114.17s WALL (      62 calls)

     General routines
     calbec       :    179.39s CPU    181.44s WALL (      88 calls)
     fft          :      7.81s CPU      7.93s WALL (     210 calls)
     ffts         :      0.57s CPU      0.59s WALL (      21 calls)
     fftw         :    814.24s CPU    822.21s WALL (   62178 calls)
 
     Parallel routines
     fft_scatt_xy :    190.70s CPU    192.38s WALL (   62409 calls)
     fft_scatt_yz :    210.10s CPU    212.41s WALL (   62409 calls)

     PAW routines
     PAW_pot      :     13.82s CPU     13.99s WALL (      21 calls)
 
     PWSCF        :  34m51.59s CPU  35m35.22s WALL

 
   This run was terminated on:  16: 4:35  22Mar2022            

=------------------------------------------------------------------------------=
   JOB DONE.
=------------------------------------------------------------------------------=
[1647979476.305964] [node0050:1674335:0]          mpool.c:43   UCX  WARN  object 0x3a84540 was not returned to mpool ucp_requests
[1647979476.322036] [node0050:1674313:0]          mpool.c:43   UCX  WARN  object 0x4bdcfc0 was not returned to mpool ucp_requests
[1647979476.337866] [node0050:1674310:0]          mpool.c:43   UCX  WARN  object 0x4efe3c0 was not returned to mpool ucp_requests
[1647979476.411601] [node0050:1674343:0]          mpool.c:43   UCX  WARN  object 0x4b4d4c0 was not returned to mpool ucp_requests
[1647979476.418754] [node0050:1674340:0]          mpool.c:43   UCX  WARN  object 0x3c90900 was not returned to mpool ucp_requests
[1647979476.440490] [node0050:1674315:0]          mpool.c:43   UCX  WARN  object 0x360a780 was not returned to mpool ucp_requests
[1647979476.443710] [node0050:1674316:0]          mpool.c:43   UCX  WARN  object 0x4887080 was not returned to mpool ucp_requests
[1647979476.494557] [node0050:1674325:0]          mpool.c:43   UCX  WARN  object 0x35e4200 was not returned to mpool ucp_requests
[1647979476.500451] [node0050:1674312:0]          mpool.c:43   UCX  WARN  object 0x340b6c0 was not returned to mpool ucp_requests
[1647979476.502955] [node0050:1674320:0]          mpool.c:43   UCX  WARN  object 0x3c095c0 was not returned to mpool ucp_requests
[1647979476.509675] [node0050:1674338:0]          mpool.c:43   UCX  WARN  object 0x4f151c0 was not returned to mpool ucp_requests
[1647979476.509727] [node0050:1674326:0]          mpool.c:43   UCX  WARN  object 0x4bbe540 was not returned to mpool ucp_requests
[1647979476.511877] [node0050:1674329:0]          mpool.c:43   UCX  WARN  object 0x3b2ed80 was not returned to mpool ucp_requests
[1647979476.513773] [node0050:1674328:0]          mpool.c:43   UCX  WARN  object 0x39f1580 was not returned to mpool ucp_requests
[1647979476.515970] [node0050:1674337:0]          mpool.c:43   UCX  WARN  object 0x4380900 was not returned to mpool ucp_requests
[1647979476.516723] [node0050:1674332:0]          mpool.c:43   UCX  WARN  object 0x3b3a340 was not returned to mpool ucp_requests
[1647979476.517505] [node0050:1674323:0]          mpool.c:43   UCX  WARN  object 0x44158c0 was not returned to mpool ucp_requests
