 2918

    1
0.0000000000e+00 0.0000000000e+00 0.0000000000e+00
0.0000000000e+00 0.0000000000e+00 0.0000000000e+00
     1      1      1
 1  1  1     0.0000000000e+00
 1  1  2     0.0000000000e+00
 1  1  3     0.0000000000e+00
 1  2  1     0.0000000000e+00
 1  2  2     0.0000000000e+00
 1  2  3     0.0000000000e+00
 1  3  1     0.0000000000e+00
 1  3  2     0.0000000000e+00
 1  3  3     0.0000000000e+00
 2  1  1     0.0000000000e+00
 2  1  2     0.0000000000e+00
 2  1  3     0.0000000000e+00
 2  2  1     0.0000000000e+00
 2  2  2     0.0000000000e+00
 2  2  3     0.0000000000e+00
 2  3  1     0.0000000000e+00
 2  3  2     0.0000000000e+00
 2  3  3     0.0000000000e+00
 3  1  1     0.0000000000e+00
 3  1  2     0.0000000000e+00
 3  1  3     0.0000000000e+00
 3  2  1     0.0000000000e+00
 3  2  2     0.0000000000e+00
 3  2  3     0.0000000000e+00
 3  3  1     0.0000000000e+00
 3  3  2     0.0000000000e+00
 3  3  3     0.0000000000e+00

    2
0.0000000000e+00 0.0000000000e+00 0.0000000000e+00
0.0000000000e+00 0.0000000000e+00 0.0000000000e+00
     1      1      2
 1  1  1     8.2217039751e-03
 1  1  2     9.1810579724e-03
 1  1  3     9.1810579724e-03
 1  2  1     9.1209233867e-03
 1  2  2    -9.1209233867e-03
 1  2  3    -1.3077731444e-02
 1  3  1     9.1209233867e-03
 1  3  2    -1.3077731444e-02
 1  3  3    -9.1209233867e-03
 2  1  1     9.1209233867e-03
 2  1  2    -9.1209233867e-03
 2  1  3    -1.3077731444e-02
 2  2  1    -9.1810579724e-03
 2  2  2    -8.2217039751e-03
 2  2  3     9.1810579724e-03
 2  3  1    -1.3077731444e-02
 2  3  2     9.1209233867e-03
 2  3  3     9.1209233867e-03
 3  1  1     9.1209233867e-03
 3  1  2    -1.3077731444e-02
 3  1  3    -9.1209233867e-03
 3  2  1    -1.3077731444e-02
 3  2  2     9.1209233867e-03
 3  2  3     9.1209233867e-03
 3  3  1    -9.1810579724e-03
 3  3  2     9.1810579724e-03
 3  3  3    -8.2217039751e-03

    3
0.0000000000e+00 0.0000000000e+00 0.0000000000e+00
-3.5037245830e+00 0.0000000000e+00 3.5037245830e+00
     1      1      1
 1  1  1     5.1422065233e-03
 1  1  2     0.0000000000e+00
 1  1  3    -7.1434286217e-02
 1  2  1     0.0000000000e+00
 1  2  2    -2.3811110999e-02
 1  2  3     0.0000000000e+00
 1  3  1    -5.4200684921e-02
 1  3  2     0.0000000000e+00
 1  3  3     5.4200684921e-02
 2  1  1     0.0000000000e+00
 2  1  2    -2.3811110999e-02
 2  1  3     0.0000000000e+00
 2  2  1    -2.9105834143e-02
 2  2  2     0.0000000000e+00
 2  2  3     2.9105834143e-02
 2  3  1     0.0000000000e+00
 2  3  2     2.3811110999e-02
 2  3  3     0.0000000000e+00
 3  1  1    -5.4200684921e-02
 3  1  2     0.0000000000e+00
 3  1  3     5.4200684921e-02
 3  2  1     0.0000000000e+00
 3  2  2     2.3811110999e-02
 3  2  3     0.0000000000e+00
 3  3  1     7.1434286217e-02
 3  3  2     0.0000000000e+00
 3  3  3    -5.1422065233e-03

    4
0.0000000000e+00 0.0000000000e+00 0.0000000000e+00
7.0074491661e+00 0.0000000000e+00 -7.0074491661e+00
     1      1      2
 1  1  1    -8.2217039751e-03
 1  1  2     9.1810579724e-03
 1  1  3    -9.1810579724e-03
 1  2  1     9.1209233867e-03
 1  2  2     9.1209233867e-03
 1  2  3    -1.3077731444e-02
 1  3  1    -9.1209233867e-03
 1  3  2    -1.3077731444e-02
 1  3  3     9.1209233867e-03
 2  1  1     9.1209233867e-03
 2  1  2     9.1209233867e-03
 2  1  3    -1.3077731444e-02
 2  2  1     9.1810579724e-03
 2  2  2    -8.2217039751e-03
 2  2  3    -9.1810579724e-03
 2  3  1    -1.3077731444e-02
 2  3  2    -9.1209233867e-03
 2  3  3     9.1209233867e-03
 3  1  1    -9.1209233867e-03
 3  1  2    -1.3077731444e-02
 3  1  3     9.1209233867e-03
 3  2  1    -1.3077731444e-02
 3  2  2    -9.1209233867e-03
 3  2  3     9.1209233867e-03
 3  3  1     9.1810579724e-03
 3  3  2     9.1810579724e-03
 3  3  3     8.2217039751e-03

    5
0.0000000000e+00 0.0000000000e+00 0.0000000000e+00
3.5037245830e+00 0.0000000000e+00 -3.5037245830e+00
     1      1      1
 1  1  1    -5.1422065233e-03
 1  1  2     0.0000000000e+00
 1  1  3     7.1434286217e-02
 1  2  1     0.0000000000e+00
 1  2  2     2.3811110999e-02
 1  2  3     0.0000000000e+00
 1  3  1     5.4200684921e-02
 1  3  2     0.0000000000e+00
 1  3  3    -5.4200684921e-02
 2  1  1     0.0000000000e+00
 2  1  2     2.3811110999e-02
 2  1  3     0.0000000000e+00
 2  2  1     2.9105834143e-02
 2  2  2     0.0000000000e+00
 2  2  3    -2.9105834143e-02
 2  3  1     0.0000000000e+00
 2  3  2    -2.3811110999e-02
 2  3  3     0.0000000000e+00
 3  1  1     5.4200684921e-02
 3  1  2     0.0000000000e+00
 3  1  3    -5.4200684921e-02
 3  2  1     0.0000000000e+00
 3  2  2    -2.3811110999e-02
 3  2  3     0.0000000000e+00
 3  3  1    -7.1434286217e-02
 3  3  2     0.0000000000e+00
 3  3  3     5.1422065233e-03

    6
0.0000000000e+00 0.0000000000e+00 0.0000000000e+00
3.5037245830e+00 0.0000000000e+00 -3.5037245830e+00
     1      1      2
 1  1  1     0.0000000000e+00
 1  1  2     1.1713423902e-01
 1  1  3     0.0000000000e+00
 1  2  1     8.0315513370e-02
 1  2  2     0.0000000000e+00
 1  2  3     0.0000000000e+00
 1  3  1     0.0000000000e+00
 1  3  2     0.0000000000e+00
 1  3  3     0.0000000000e+00
 2  1  1     8.0315513370e-02
 2  1  2     0.0000000000e+00
 2  1  3     0.0000000000e+00
 2  2  1     0.0000000000e+00
 2  2  2    -2.3477549979e+00
 2  2  3     0.0000000000e+00
 2  3  1     0.0000000000e+00
 2  3  2     0.0000000000e+00
 2  3  3     8.0315513370e-02
 3  1  1     0.0000000000e+00
 3  1  2     0.0000000000e+00
 3  1  3     0.0000000000e+00
 3  2  1     0.0000000000e+00
 3  2  2     0.0000000000e+00
 3  2  3     8.0315513370e-02
 3  3  1     0.0000000000e+00
 3  3  2     1.1713423902e-01
 3  3  3     0.0000000000e+00

    7
0.0000000000e+00 0.0000000000e+00 0.0000000000e+00
0.0000000000e+00 3.5037245830e+00 3.5037245830e+00
     1      1      1
 1  1  1     0.0000000000e+00
 1  1  2     2.9105834143e-02
 1  1  3     2.9105834143e-02
 1  2  1     2.3811110999e-02
 1  2  2     0.0000000000e+00
 1  2  3     0.0000000000e+00
 1  3  1     2.3811110999e-02
 1  3  2     0.0000000000e+00
 1  3  3     0.0000000000e+00
 2  1  1     2.3811110999e-02
 2  1  2     0.0000000000e+00
 2  1  3     0.0000000000e+00
 2  2  1     0.0000000000e+00
 2  2  2    -5.1422065233e-03
 2  2  3    -7.1434286217e-02
 2  3  1     0.0000000000e+00
 2  3  2    -5.4200684921e-02
 2  3  3    -5.4200684921e-02
 3  1  1     2.3811110999e-02
 3  1  2     0.0000000000e+00
 3  1  3     0.0000000000e+00
 3  2  1     0.0000000000e+00
 3  2  2    -5.4200684921e-02
 3  2  3    -5.4200684921e-02
 3  3  1     0.0000000000e+00
 3  3  2    -7.1434286217e-02
 3  3  3    -5.1422065233e-03

    8
0.0000000000e+00 0.0000000000e+00 0.0000000000e+00
7.0074491661e+00 3.5037245830e+00 -3.5037245830e+00
     1      1      2
 1  1  1    -9.2826468228e-03
 1  1  2     2.7191427892e-03
 1  1  3     0.0000000000e+00
 1  2  1    -9.1217914027e-04
 1  2  2     4.7084231840e-03
 1  2  3     0.0000000000e+00
 1  3  1     0.0000000000e+00
 1  3  2     0.0000000000e+00
 1  3  3    -1.3819467660e-03
 2  1  1    -9.1217914027e-04
 2  1  2     4.7084231840e-03
 2  1  3     0.0000000000e+00
 2  2  1     1.3433747655e-03
 2  2  2     7.9059951142e-03
 2  2  3     0.0000000000e+00
 2  3  1     0.0000000000e+00
 2  3  2     0.0000000000e+00
 2  3  3    -1.9494225324e-03
 3  1  1     0.0000000000e+00
 3  1  2     0.0000000000e+00
 3  1  3    -1.3819467660e-03
 3  2  1     0.0000000000e+00
 3  2  2     0.0000000000e+00
 3  2  3    -1.9494225324e-03
 3  3  1    -6.0280033046e-03
 3  3  2    -7.0614590223e-03
 3  3  3     0.0000000000e+00

    9
0.0000000000e+00 0.0000000000e+00 0.0000000000e+00
3.5037245830e+00 3.5037245830e+00 0.0000000000e+00
     1      1      1
 1  1  1    -5.1422065233e-03
 1  1  2    -7.1434286217e-02
 1  1  3     0.0000000000e+00
 1  2  1    -5.4200684921e-02
 1  2  2    -5.4200684921e-02
 1  2  3     0.0000000000e+00
 1  3  1     0.0000000000e+00
 1  3  2     0.0000000000e+00
 1  3  3     2.3811110999e-02
 2  1  1    -5.4200684921e-02
 2  1  2    -5.4200684921e-02
 2  1  3     0.0000000000e+00
 2  2  1    -7.1434286217e-02
 2  2  2    -5.1422065233e-03
 2  2  3     0.0000000000e+00
 2  3  1     0.0000000000e+00
 2  3  2     0.0000000000e+00
 2  3  3     2.3811110999e-02
 3  1  1     0.0000000000e+00
 3  1  2     0.0000000000e+00
 3  1  3     2.3811110999e-02
 3  2  1     0.0000000000e+00
 3  2  2     0.0000000000e+00
 3  2  3     2.3811110999e-02
 3  3  1     2.9105834143e-02
 3  3  2     2.9105834143e-02
 3  3  3     0.0000000000e+00

   10
0.0000000000e+00 0.0000000000e+00 0.0000000000e+00
3.5037245830e+00 3.5037245830e+00 0.0000000000e+00
     1      1      2
 1  1  1     0.0000000000e+00
 1  1  2    -7.0614590223e-03
 1  1  3    -6.0280033046e-03
 1  2  1    -1.9494225324e-03
 1  2  2     0.0000000000e+00
 1  2  3     0.0000000000e+00
 1  3  1    -1.3819467660e-03
 1  3  2     0.0000000000e+00
 1  3  3     0.0000000000e+00
 2  1  1    -1.9494225324e-03
 2  1  2     0.0000000000e+00
 2  1  3     0.0000000000e+00
 2  2  1     0.0000000000e+00
 2  2  2     7.9059951142e-03
 2  2  3     1.3433747655e-03
 2  3  1     0.0000000000e+00
 2  3  2     4.7084231840e-03
 2  3  3    -9.1217914027e-04
 3  1  1    -1.3819467660e-03
 3  1  2     0.0000000000e+00
 3  1  3     0.0000000000e+00
 3  2  1     0.0000000000e+00
 3  2  2     4.7084231840e-03
 3  2  3    -9.1217914027e-04
 3  3  1     0.0000000000e+00
 3  3  2     2.7191427892e-03
 3  3  3    -9.2826468228e-03

   11
0.0000000000e+00 0.0000000000e+00 0.0000000000e+00
0.0000000000e+00 -7.0074491661e+00 -7.0074491661e+00
     1      1      2
 1  1  1     8.2217039751e-03
 1  1  2    -9.1810579724e-03
 1  1  3    -9.1810579724e-03
 1  2  1    -9.1209233867e-03
 1  2  2    -9.1209233867e-03
 1  2  3    -1.3077731444e-02
 1  3  1    -9.1209233867e-03
 1  3  2    -1.3077731444e-02
 1  3  3    -9.1209233867e-03
 2  1  1    -9.1209233867e-03
 2  1  2    -9.1209233867e-03
 2  1  3    -1.3077731444e-02
 2  2  1    -9.1810579724e-03
 2  2  2     8.2217039751e-03
 2  2  3    -9.1810579724e-03
 2  3  1    -1.3077731444e-02
 2  3  2    -9.1209233867e-03
 2  3  3    -9.1209233867e-03
 3  1  1    -9.1209233867e-03
 3  1  2    -1.3077731444e-02
 3  1  3    -9.1209233867e-03
 3  2  1    -1.3077731444e-02
 3  2  2    -9.1209233867e-03
 3  2  3    -9.1209233867e-03
 3  3  1    -9.1810579724e-03
 3  3  2    -9.1810579724e-03
 3  3  3     8.2217039751e-03

   12
0.0000000000e+00 0.0000000000e+00 0.0000000000e+00
-3.5037245830e+00 -7.0074491661e+00 -3.5037245830e+00
     1      1      2
 1  1  1    -7.9059951142e-03
 1  1  2    -1.3433747655e-03
 1  1  3     0.0000000000e+00
 1  2  1    -4.7084231840e-03
 1  2  2     9.1217914027e-04
 1  2  3     0.0000000000e+00
 1  3  1     0.0000000000e+00
 1  3  2     0.0000000000e+00
 1  3  3     1.9494225324e-03
 2  1  1    -4.7084231840e-03
 2  1  2     9.1217914027e-04
 2  1  3     0.0000000000e+00
 2  2  1    -2.7191427892e-03
 2  2  2     9.2826468228e-03
 2  2  3     0.0000000000e+00
 2  3  1     0.0000000000e+00
 2  3  2     0.0000000000e+00
 2  3  3     1.3819467660e-03
 3  1  1     0.0000000000e+00
 3  1  2     0.0000000000e+00
 3  1  3     1.9494225324e-03
 3  2  1     0.0000000000e+00
 3  2  2     0.0000000000e+00
 3  2  3     1.3819467660e-03
 3  3  1     7.0614590223e-03
 3  3  2     6.0280033046e-03
 3  3  3     0.0000000000e+00

   13
0.0000000000e+00 0.0000000000e+00 0.0000000000e+00
3.5037245830e+00 -7.0074491661e+00 -1.0511173749e+01
     1      1      2
 1  1  1     0.0000000000e+00
 1  1  2     6.0280033046e-03
 1  1  3     7.0614590223e-03
 1  2  1     1.3819467660e-03
 1  2  2     0.0000000000e+00
 1  2  3     0.0000000000e+00
 1  3  1     1.9494225324e-03
 1  3  2     0.0000000000e+00
 1  3  3     0.0000000000e+00
 2  1  1     1.3819467660e-03
 2  1  2     0.0000000000e+00
 2  1  3     0.0000000000e+00
 2  2  1     0.0000000000e+00
 2  2  2     9.2826468228e-03
 2  2  3    -2.7191427892e-03
 2  3  1     0.0000000000e+00
 2  3  2     9.1217914027e-04
 2  3  3    -4.7084231840e-03
 3  1  1     1.9494225324e-03
 3  1  2     0.0000000000e+00
 3  1  3     0.0000000000e+00
 3  2  1     0.0000000000e+00
 3  2  2     9.1217914027e-04
 3  2  3    -4.7084231840e-03
 3  3  1     0.0000000000e+00
 3  3  2    -1.3433747655e-03
 3  3  3    -7.9059951142e-03

   14
0.0000000000e+00 0.0000000000e+00 0.0000000000e+00
0.0000000000e+00 -3.5037245830e+00 -3.5037245830e+00
     1      1      1
 1  1  1     0.0000000000e+00
 1  1  2    -2.9105834143e-02
 1  1  3    -2.9105834143e-02
 1  2  1    -2.3811110999e-02
 1  2  2     0.0000000000e+00
 1  2  3     0.0000000000e+00
 1  3  1    -2.3811110999e-02
 1  3  2     0.0000000000e+00
 1  3  3     0.0000000000e+00
 2  1  1    -2.3811110999e-02
 2  1  2     0.0000000000e+00
 2  1  3     0.0000000000e+00
 2  2  1     0.0000000000e+00
 2  2  2     5.1422065233e-03
 2  2  3     7.1434286217e-02
 2  3  1     0.0000000000e+00
 2  3  2     5.4200684921e-02
 2  3  3     5.4200684921e-02
 3  1  1    -2.3811110999e-02
 3  1  2     0.0000000000e+00
 3  1  3     0.0000000000e+00
 3  2  1     0.0000000000e+00
 3  2  2     5.4200684921e-02
 3  2  3     5.4200684921e-02
 3  3  1     0.0000000000e+00
 3  3  2     7.1434286217e-02
 3  3  3     5.1422065233e-03

   15
0.0000000000e+00 0.0000000000e+00 0.0000000000e+00
0.0000000000e+00 -3.5037245830e+00 -3.5037245830e+00
     1      1      2
 1  1  1     2.3477549979e+00
 1  1  2     0.0000000000e+00
 1  1  3     0.0000000000e+00
 1  2  1     0.0000000000e+00
 1  2  2    -8.0315513370e-02
 1  2  3     0.0000000000e+00
 1  3  1     0.0000000000e+00
 1  3  2     0.0000000000e+00
 1  3  3    -8.0315513370e-02
 2  1  1     0.0000000000e+00
 2  1  2    -8.0315513370e-02
 2  1  3     0.0000000000e+00
 2  2  1    -1.1713423902e-01
 2  2  2     0.0000000000e+00
 2  2  3     0.0000000000e+00
 2  3  1     0.0000000000e+00
 2  3  2     0.0000000000e+00
 2  3  3     0.0000000000e+00
 3  1  1     0.0000000000e+00
 3  1  2     0.0000000000e+00
 3  1  3    -8.0315513370e-02
 3  2  1     0.0000000000e+00
 3  2  2     0.0000000000e+00
 3  2  3     0.0000000000e+00
 3  3  1    -1.1713423902e-01
 3  3  2     0.0000000000e+00
 3  3  3     0.0000000000e+00

   16
0.0000000000e+00 0.0000000000e+00 0.0000000000e+00
-3.5037245830e+00 -3.5037245830e+00 0.0000000000e+00
     1      1      1
 1  1  1     5.1422065233e-03
 1  1  2     7.1434286217e-02
 1  1  3     0.0000000000e+00
 1  2  1     5.4200684921e-02
 1  2  2     5.4200684921e-02
 1  2  3     0.0000000000e+00
 1  3  1     0.0000000000e+00
 1  3  2     0.0000000000e+00
 1  3  3    -2.3811110999e-02
 2  1  1     5.4200684921e-02
 2  1  2     5.4200684921e-02
 2  1  3     0.0000000000e+00
 2  2  1     7.1434286217e-02
 2  2  2     5.1422065233e-03
 2  2  3     0.0000000000e+00
 2  3  1     0.0000000000e+00
 2  3  2     0.0000000000e+00
 2  3  3    -2.3811110999e-02
 3  1  1     0.0000000000e+00
 3  1  2     0.0000000000e+00
 3  1  3    -2.3811110999e-02
 3  2  1     0.0000000000e+00
 3  2  2     0.0000000000e+00
 3  2  3    -2.3811110999e-02
 3  3  1    -2.9105834143e-02
 3  3  2    -2.9105834143e-02
 3  3  3     0.0000000000e+00

   17
0.0000000000e+00 0.0000000000e+00 0.0000000000e+00
-3.5037245830e+00 -3.5037245830e+00 0.0000000000e+00
     1      1      2
 1  1  1    -7.9059951142e-03
 1  1  2     0.0000000000e+00
 1  1  3     1.3433747655e-03
 1  2  1     0.0000000000e+00
 1  2  2     1.9494225324e-03
 1  2  3     0.0000000000e+00
 1  3  1     4.7084231840e-03
 1  3  2     0.0000000000e+00
 1  3  3     9.1217914027e-04
 2  1  1     0.0000000000e+00
 2  1  2     1.9494225324e-03
 2  1  3     0.0000000000e+00
 2  2  1     7.0614590223e-03
 2  2  2     0.0000000000e+00
 2  2  3    -6.0280033046e-03
 2  3  1     0.0000000000e+00
 2  3  2    -1.3819467660e-03
 2  3  3     0.0000000000e+00
 3  1  1     4.7084231840e-03
 3  1  2     0.0000000000e+00
 3  1  3     9.1217914027e-04
 3  2  1     0.0000000000e+00
 3  2  2    -1.3819467660e-03
 3  2  3     0.0000000000e+00
 3  3  1    -2.7191427892e-03
 3  3  2     0.0000000000e+00
 3  3  3    -9.2826468228e-03

   18
0.0000000000e+00 0.0000000000e+00 0.0000000000e+00
7.0074491661e+00 -3.5037245830e+00 -1.0511173749e+01
     1      1      2
 1  1  1    -9.2826468228e-03
 1  1  2     0.0000000000e+00
 1  1  3    -2.7191427892e-03
 1  2  1     0.0000000000e+00
 1  2  2    -1.3819467660e-03
 1  2  3     0.0000000000e+00
 1  3  1     9.1217914027e-04
 1  3  2     0.0000000000e+00
 1  3  3     4.7084231840e-03
 2  1  1     0.0000000000e+00
 2  1  2    -1.3819467660e-03
 2  1  3     0.0000000000e+00
 2  2  1    -6.0280033046e-03
 2  2  2     0.0000000000e+00
 2  2  3     7.0614590223e-03
 2  3  1     0.0000000000e+00
 2  3  2     1.9494225324e-03
 2  3  3     0.0000000000e+00
 3  1  1     9.1217914027e-04
 3  1  2     0.0000000000e+00
 3  1  3     4.7084231840e-03
 3  2  1     0.0000000000e+00
 3  2  2     1.9494225324e-03
 3  2  3     0.0000000000e+00
 3  3  1     1.3433747655e-03
 3  3  2     0.0000000000e+00
 3  3  3    -7.9059951142e-03

   19
0.0000000000e+00 0.0000000000e+00 0.0000000000e+00
3.5037245830e+00 -3.5037245830e+00 -7.0074491661e+00
     1      1      2
 1  1  1     0.0000000000e+00
 1  1  2     0.0000000000e+00
 1  1  3    -1.1713423902e-01
 1  2  1     0.0000000000e+00
 1  2  2     0.0000000000e+00
 1  2  3     0.0000000000e+00
 1  3  1    -8.0315513370e-02
 1  3  2     0.0000000000e+00
 1  3  3     0.0000000000e+00
 2  1  1     0.0000000000e+00
 2  1  2     0.0000000000e+00
 2  1  3     0.0000000000e+00
 2  2  1     0.0000000000e+00
 2  2  2     0.0000000000e+00
 2  2  3    -1.1713423902e-01
 2  3  1     0.0000000000e+00
 2  3  2    -8.0315513370e-02
 2  3  3     0.0000000000e+00
 3  1  1    -8.0315513370e-02
 3  1  2     0.0000000000e+00
 3  1  3     0.0000000000e+00
 3  2  1     0.0000000000e+00
 3  2  2    -8.0315513370e-02
 3  2  3     0.0000000000e+00
 3  3  1     0.0000000000e+00
 3  3  2     0.0000000000e+00
 3  3  3     2.3477549979e+00

   20
0.0000000000e+00 0.0000000000e+00 0.0000000000e+00
-3.5037245830e+00 3.5037245830e+00 0.0000000000e+00
     1      1      1
 1  1  1     5.1422065233e-03
 1  1  2    -7.1434286217e-02
 1  1  3     0.0000000000e+00
 1  2  1    -5.4200684921e-02
 1  2  2     5.4200684921e-02
 1  2  3     0.0000000000e+00
 1  3  1     0.0000000000e+00
 1  3  2     0.0000000000e+00
 1  3  3    -2.3811110999e-02
 2  1  1    -5.4200684921e-02
 2  1  2     5.4200684921e-02
 2  1  3     0.0000000000e+00
 2  2  1     7.1434286217e-02
 2  2  2    -5.1422065233e-03
 2  2  3     0.0000000000e+00
 2  3  1     0.0000000000e+00
 2  3  2     0.0000000000e+00
 2  3  3     2.3811110999e-02
 3  1  1     0.0000000000e+00
 3  1  2     0.0000000000e+00
 3  1  3    -2.3811110999e-02
 3  2  1     0.0000000000e+00
 3  2  2     0.0000000000e+00
 3  2  3     2.3811110999e-02
 3  3  1    -2.9105834143e-02
 3  3  2     2.9105834143e-02
 3  3  3     0.0000000000e+00

   21
0.0000000000e+00 0.0000000000e+00 0.0000000000e+00
3.5037245830e+00 3.5037245830e+00 -7.0074491661e+00
     1      1      2
 1  1  1     0.0000000000e+00
 1  1  2    -7.0614590223e-03
 1  1  3     6.0280033046e-03
 1  2  1    -1.9494225324e-03
 1  2  2     0.0000000000e+00
 1  2  3     0.0000000000e+00
 1  3  1     1.3819467660e-03
 1  3  2     0.0000000000e+00
 1  3  3     0.0000000000e+00
 2  1  1    -1.9494225324e-03
 2  1  2     0.0000000000e+00
 2  1  3     0.0000000000e+00
 2  2  1     0.0000000000e+00
 2  2  2     7.9059951142e-03
 2  2  3    -1.3433747655e-03
 2  3  1     0.0000000000e+00
 2  3  2    -4.7084231840e-03
 2  3  3    -9.1217914027e-04
 3  1  1     1.3819467660e-03
 3  1  2     0.0000000000e+00
 3  1  3     0.0000000000e+00
 3  2  1     0.0000000000e+00
 3  2  2    -4.7084231840e-03
 3  2  3    -9.1217914027e-04
 3  3  1     0.0000000000e+00
 3  3  2     2.7191427892e-03
 3  3  3     9.2826468228e-03

   22
0.0000000000e+00 0.0000000000e+00 0.0000000000e+00
0.0000000000e+00 3.5037245830e+00 -3.5037245830e+00
     1      1      1
 1  1  1     0.0000000000e+00
 1  1  2     2.9105834143e-02
 1  1  3    -2.9105834143e-02
 1  2  1     2.3811110999e-02
 1  2  2     0.0000000000e+00
 1  2  3     0.0000000000e+00
 1  3  1    -2.3811110999e-02
 1  3  2     0.0000000000e+00
 1  3  3     0.0000000000e+00
 2  1  1     2.3811110999e-02
 2  1  2     0.0000000000e+00
 2  1  3     0.0000000000e+00
 2  2  1     0.0000000000e+00
 2  2  2    -5.1422065233e-03
 2  2  3     7.1434286217e-02
 2  3  1     0.0000000000e+00
 2  3  2     5.4200684921e-02
 2  3  3    -5.4200684921e-02
 3  1  1    -2.3811110999e-02
 3  1  2     0.0000000000e+00
 3  1  3     0.0000000000e+00
 3  2  1     0.0000000000e+00
 3  2  2     5.4200684921e-02
 3  2  3    -5.4200684921e-02
 3  3  1     0.0000000000e+00
 3  3  2    -7.1434286217e-02
 3  3  3     5.1422065233e-03

   23
0.0000000000e+00 0.0000000000e+00 0.0000000000e+00
0.0000000000e+00 3.5037245830e+00 -3.5037245830e+00
     1      1      2
 1  1  1     9.2826468228e-03
 1  1  2     2.7191427892e-03
 1  1  3     0.0000000000e+00
 1  2  1    -9.1217914027e-04
 1  2  2    -4.7084231840e-03
 1  2  3     0.0000000000e+00
 1  3  1     0.0000000000e+00
 1  3  2     0.0000000000e+00
 1  3  3     1.3819467660e-03
 2  1  1    -9.1217914027e-04
 2  1  2    -4.7084231840e-03
 2  1  3     0.0000000000e+00
 2  2  1    -1.3433747655e-03
 2  2  2     7.9059951142e-03
 2  2  3     0.0000000000e+00
 2  3  1     0.0000000000e+00
 2  3  2     0.0000000000e+00
 2  3  3    -1.9494225324e-03
 3  1  1     0.0000000000e+00
 3  1  2     0.0000000000e+00
 3  1  3     1.3819467660e-03
 3  2  1     0.0000000000e+00
 3  2  2     0.0000000000e+00
 3  2  3    -1.9494225324e-03
 3  3  1     6.0280033046e-03
 3  3  2    -7.0614590223e-03
 3  3  3     0.0000000000e+00

   24
0.0000000000e+00 0.0000000000e+00 0.0000000000e+00
0.0000000000e+00 7.0074491661e+00 0.0000000000e+00
     1      1      1
 1  1  1     0.0000000000e+00
 1  1  2     2.1782158849e-02
 1  1  3     0.0000000000e+00
 1  2  1     3.6828797693e-03
 1  2  2     0.0000000000e+00
 1  2  3     0.0000000000e+00
 1  3  1     0.0000000000e+00
 1  3  2     0.0000000000e+00
 1  3  3     0.0000000000e+00
 2  1  1     3.6828797693e-03
 2  1  2     0.0000000000e+00
 2  1  3     0.0000000000e+00
 2  2  1     0.0000000000e+00
 2  2  2    -2.3782705170e-02
 2  2  3     0.0000000000e+00
 2  3  1     0.0000000000e+00
 2  3  2     0.0000000000e+00
 2  3  3     3.6828797693e-03
 3  1  1     0.0000000000e+00
 3  1  2     0.0000000000e+00
 3  1  3     0.0000000000e+00
 3  2  1     0.0000000000e+00
 3  2  2     0.0000000000e+00
 3  2  3     3.6828797693e-03
 3  3  1     0.0000000000e+00
 3  3  2     2.1782158849e-02
 3  3  3     0.0000000000e+00

   25
0.0000000000e+00 0.0000000000e+00 0.0000000000e+00
-3.5037245830e+00 -3.5037245830e+00 -7.0074491661e+00
     1      1      2
 1  1  1    -7.9059951142e-03
 1  1  2     0.0000000000e+00
 1  1  3    -1.3433747655e-03
 1  2  1     0.0000000000e+00
 1  2  2     1.9494225324e-03
 1  2  3     0.0000000000e+00
 1  3  1    -4.7084231840e-03
 1  3  2     0.0000000000e+00
 1  3  3     9.1217914027e-04
 2  1  1     0.0000000000e+00
 2  1  2     1.9494225324e-03
 2  1  3     0.0000000000e+00
 2  2  1     7.0614590223e-03
 2  2  2     0.0000000000e+00
 2  2  3     6.0280033046e-03
 2  3  1     0.0000000000e+00
 2  3  2     1.3819467660e-03
 2  3  3     0.0000000000e+00
 3  1  1    -4.7084231840e-03
 3  1  2     0.0000000000e+00
 3  1  3     9.1217914027e-04
 3  2  1     0.0000000000e+00
 3  2  2     1.3819467660e-03
 3  2  3     0.0000000000e+00
 3  3  1    -2.7191427892e-03
 3  3  2     0.0000000000e+00
 3  3  3     9.2826468228e-03

   26
0.0000000000e+00 0.0000000000e+00 0.0000000000e+00
0.0000000000e+00 -3.5037245830e+00 -1.0511173749e+01
     1      1      2
 1  1  1     9.2826468228e-03
 1  1  2     0.0000000000e+00
 1  1  3    -2.7191427892e-03
 1  2  1     0.0000000000e+00
 1  2  2     1.3819467660e-03
 1  2  3     0.0000000000e+00
 1  3  1     9.1217914027e-04
 1  3  2     0.0000000000e+00
 1  3  3    -4.7084231840e-03
 2  1  1     0.0000000000e+00
 2  1  2     1.3819467660e-03
 2  1  3     0.0000000000e+00
 2  2  1     6.0280033046e-03
 2  2  2     0.0000000000e+00
 2  2  3     7.0614590223e-03
 2  3  1     0.0000000000e+00
 2  3  2     1.9494225324e-03
 2  3  3     0.0000000000e+00
 3  1  1     9.1217914027e-04
 3  1  2     0.0000000000e+00
 3  1  3    -4.7084231840e-03
 3  2  1     0.0000000000e+00
 3  2  2     1.9494225324e-03
 3  2  3     0.0000000000e+00
 3  3  1    -1.3433747655e-03
 3  3  2     0.0000000000e+00
 3  3  3    -7.9059951142e-03

   27
0.0000000000e+00 0.0000000000e+00 0.0000000000e+00
-3.5037245830e+00 0.0000000000e+00 -3.5037245830e+00
     1      1      1
 1  1  1     5.1422065233e-03
 1  1  2     0.0000000000e+00
 1  1  3     7.1434286217e-02
 1  2  1     0.0000000000e+00
 1  2  2    -2.3811110999e-02
 1  2  3     0.0000000000e+00
 1  3  1     5.4200684921e-02
 1  3  2     0.0000000000e+00
 1  3  3     5.4200684921e-02
 2  1  1     0.0000000000e+00
 2  1  2    -2.3811110999e-02
 2  1  3     0.0000000000e+00
 2  2  1    -2.9105834143e-02
 2  2  2     0.0000000000e+00
 2  2  3    -2.9105834143e-02
 2  3  1     0.0000000000e+00
 2  3  2    -2.3811110999e-02
 2  3  3     0.0000000000e+00
 3  1  1     5.4200684921e-02
 3  1  2     0.0000000000e+00
 3  1  3     5.4200684921e-02
 3  2  1     0.0000000000e+00
 3  2  2    -2.3811110999e-02
 3  2  3     0.0000000000e+00
 3  3  1     7.1434286217e-02
 3  3  2     0.0000000000e+00
 3  3  3     5.1422065233e-03

   28
0.0000000000e+00 0.0000000000e+00 0.0000000000e+00
-3.5037245830e+00 0.0000000000e+00 -3.5037245830e+00
     1      1      2
 1  1  1    -7.9059951142e-03
 1  1  2     1.3433747655e-03
 1  1  3     0.0000000000e+00
 1  2  1     4.7084231840e-03
 1  2  2     9.1217914027e-04
 1  2  3     0.0000000000e+00
 1  3  1     0.0000000000e+00
 1  3  2     0.0000000000e+00
 1  3  3     1.9494225324e-03
 2  1  1     4.7084231840e-03
 2  1  2     9.1217914027e-04
 2  1  3     0.0000000000e+00
 2  2  1    -2.7191427892e-03
 2  2  2    -9.2826468228e-03
 2  2  3     0.0000000000e+00
 2  3  1     0.0000000000e+00
 2  3  2     0.0000000000e+00
 2  3  3    -1.3819467660e-03
 3  1  1     0.0000000000e+00
 3  1  2     0.0000000000e+00
 3  1  3     1.9494225324e-03
 3  2  1     0.0000000000e+00
 3  2  2     0.0000000000e+00
 3  2  3    -1.3819467660e-03
 3  3  1     7.0614590223e-03
 3  3  2    -6.0280033046e-03
 3  3  3     0.0000000000e+00

   29
0.0000000000e+00 0.0000000000e+00 0.0000000000e+00
-7.0074491661e+00 0.0000000000e+00 0.0000000000e+00
     1      1      1
 1  1  1     2.3782705170e-02
 1  1  2     0.0000000000e+00
 1  1  3     0.0000000000e+00
 1  2  1     0.0000000000e+00
 1  2  2    -3.6828797693e-03
 1  2  3     0.0000000000e+00
 1  3  1     0.0000000000e+00
 1  3  2     0.0000000000e+00
 1  3  3    -3.6828797693e-03
 2  1  1     0.0000000000e+00
 2  1  2    -3.6828797693e-03
 2  1  3     0.0000000000e+00
 2  2  1    -2.1782158849e-02
 2  2  2     0.0000000000e+00
 2  2  3     0.0000000000e+00
 2  3  1     0.0000000000e+00
 2  3  2     0.0000000000e+00
 2  3  3     0.0000000000e+00
 3  1  1     0.0000000000e+00
 3  1  2     0.0000000000e+00
 3  1  3    -3.6828797693e-03
 3  2  1     0.0000000000e+00
 3  2  2     0.0000000000e+00
 3  2  3     0.0000000000e+00
 3  3  1    -2.1782158849e-02
 3  3  2     0.0000000000e+00
 3  3  3     0.0000000000e+00

   30
0.0000000000e+00 0.0000000000e+00 0.0000000000e+00
3.5037245830e+00 0.0000000000e+00 -1.0511173749e+01
     1      1      2
 1  1  1     0.0000000000e+00
 1  1  2    -6.0280033046e-03
 1  1  3     7.0614590223e-03
 1  2  1    -1.3819467660e-03
 1  2  2     0.0000000000e+00
 1  2  3     0.0000000000e+00
 1  3  1     1.9494225324e-03
 1  3  2     0.0000000000e+00
 1  3  3     0.0000000000e+00
 2  1  1    -1.3819467660e-03
 2  1  2     0.0000000000e+00
 2  1  3     0.0000000000e+00
 2  2  1     0.0000000000e+00
 2  2  2    -9.2826468228e-03
 2  2  3    -2.7191427892e-03
 2  3  1     0.0000000000e+00
 2  3  2     9.1217914027e-04
 2  3  3     4.7084231840e-03
 3  1  1     1.9494225324e-03
 3  1  2     0.0000000000e+00
 3  1  3     0.0000000000e+00
 3  2  1     0.0000000000e+00
 3  2  2     9.1217914027e-04
 3  2  3     4.7084231840e-03
 3  3  1     0.0000000000e+00
 3  3  2     1.3433747655e-03
 3  3  3    -7.9059951142e-03

   31
0.0000000000e+00 0.0000000000e+00 0.0000000000e+00
0.0000000000e+00 0.0000000000e+00 -7.0074491661e+00
     1      1      1
 1  1  1     0.0000000000e+00
 1  1  2     0.0000000000e+00
 1  1  3    -2.1782158849e-02
 1  2  1     0.0000000000e+00
 1  2  2     0.0000000000e+00
 1  2  3     0.0000000000e+00
 1  3  1    -3.6828797693e-03
 1  3  2     0.0000000000e+00
 1  3  3     0.0000000000e+00
 2  1  1     0.0000000000e+00
 2  1  2     0.0000000000e+00
 2  1  3     0.0000000000e+00
 2  2  1     0.0000000000e+00
 2  2  2     0.0000000000e+00
 2  2  3    -2.1782158849e-02
 2  3  1     0.0000000000e+00
 2  3  2    -3.6828797693e-03
 2  3  3     0.0000000000e+00
 3  1  1    -3.6828797693e-03
 3  1  2     0.0000000000e+00
 3  1  3     0.0000000000e+00
 3  2  1     0.0000000000e+00
 3  2  2    -3.6828797693e-03
 3  2  3     0.0000000000e+00
 3  3  1     0.0000000000e+00
 3  3  2     0.0000000000e+00
 3  3  3     2.3782705170e-02

   32
0.0000000000e+00 0.0000000000e+00 0.0000000000e+00
0.0000000000e+00 0.0000000000e+00 -7.0074491661e+00
     1      1      2
 1  1  1     8.2217039751e-03
 1  1  2     9.1810579724e-03
 1  1  3    -9.1810579724e-03
 1  2  1     9.1209233867e-03
 1  2  2    -9.1209233867e-03
 1  2  3     1.3077731444e-02
 1  3  1    -9.1209233867e-03
 1  3  2     1.3077731444e-02
 1  3  3    -9.1209233867e-03
 2  1  1     9.1209233867e-03
 2  1  2    -9.1209233867e-03
 2  1  3     1.3077731444e-02
 2  2  1    -9.1810579724e-03
 2  2  2    -8.2217039751e-03
 2  2  3    -9.1810579724e-03
 2  3  1     1.3077731444e-02
 2  3  2    -9.1209233867e-03
 2  3  3     9.1209233867e-03
 3  1  1    -9.1209233867e-03
 3  1  2     1.3077731444e-02
 3  1  3    -9.1209233867e-03
 3  2  1     1.3077731444e-02