   2  250
1 1
     1.338312924127279    -0.000000000000000     0.000000000000000
    -0.000000000000000     1.338312924127280    -0.000000000000000
     0.000000000000000    -0.000000000000000     1.338312924127280
1 2
     0.045549901170447    -0.000000000000000     0.000000000000000
    -0.000000000000000    -0.028480996839269    -0.127566659520130
     0.000000000000000    -0.127566659520130    -0.028480996839269
1 3
     0.004534172327721     0.000000000000000     0.000000000000000
     0.000000000000000    -0.004955377452498    -0.015057308575282
     0.000000000000000    -0.015057308575282    -0.004955377452498
1 4
     0.004534172327721     0.000000000000000     0.000000000000000
     0.000000000000000    -0.004955377452498    -0.015057308575282
     0.000000000000000    -0.015057308575282    -0.004955377452498
1 5
     0.045549901170447    -0.000000000000000     0.000000000000000
    -0.000000000000000    -0.028480996839269    -0.127566659520130
     0.000000000000000    -0.127566659520130    -0.028480996839269
1 6
    -0.028480996839269     0.000000000000000    -0.127566659520130
     0.000000000000000     0.045549901170447     0.000000000000000
    -0.127566659520130     0.000000000000000    -0.028480996839269
1 7
     0.003492250485643    -0.003512552935544    -0.012651466140642
    -0.003512552935544     0.003492250485643    -0.012651466140642
    -0.012651466140642    -0.012651466140642    -0.012150719281157
1 8
     0.000209860807375     0.001354374651015    -0.001354374651015
     0.001354374651015    -0.004092883956145    -0.006951920319236
    -0.001354374651015    -0.006951920319236    -0.004092883956145
1 9
     0.003492250485643     0.012651466140642     0.003512552935544
     0.012651466140642    -0.012150719281157    -0.012651466140642
     0.003512552935544    -0.012651466140642     0.003492250485643
1 10
    -0.028480996839269     0.127566659520130     0.000000000000000
     0.127566659520130    -0.028480996839269     0.000000000000000
     0.000000000000000     0.000000000000000     0.045549901170447
1 11
    -0.004955377452498     0.000000000000000    -0.015057308575282
     0.000000000000000     0.004534172327721     0.000000000000000
    -0.015057308575282     0.000000000000000    -0.004955377452498
1 12
    -0.004092883956145     0.001354374651015    -0.006951920319236
     0.001354374651015     0.000209860807375    -0.001354374651015
    -0.006951920319236    -0.001354374651015    -0.004092883956145
1 13
    -0.004092883956145     0.006951920319236    -0.001354374651015
     0.006951920319236    -0.004092883956145    -0.001354374651015
    -0.001354374651015    -0.001354374651015     0.000209860807375
1 14
    -0.004955377452498     0.015057308575282     0.000000000000000
     0.015057308575282    -0.004955377452498     0.000000000000000
     0.000000000000000     0.000000000000000     0.004534172327721
1 15
    -0.012150719281157     0.012651466140642    -0.012651466140642
     0.012651466140642     0.003492250485643     0.003512552935544
    -0.012651466140642     0.003512552935544     0.003492250485643
1 16
    -0.004955377452498     0.000000000000000    -0.015057308575282
     0.000000000000000     0.004534172327721     0.000000000000000
    -0.015057308575282     0.000000000000000    -0.004955377452498
1 17
    -0.012150719281157     0.012651466140642    -0.012651466140642
     0.012651466140642     0.003492250485643     0.003512552935544
    -0.012651466140642     0.003512552935544     0.003492250485643
1 18
    -0.004955377452498     0.015057308575282     0.000000000000000
     0.015057308575282    -0.004955377452498     0.000000000000000
     0.000000000000000     0.000000000000000     0.004534172327721
1 19
    -0.004092883956145     0.006951920319236    -0.001354374651015
     0.006951920319236    -0.004092883956145    -0.001354374651015
    -0.001354374651015    -0.001354374651015     0.000209860807375
1 20
    -0.004092883956145     0.001354374651015    -0.006951920319236
     0.001354374651015     0.000209860807375    -0.001354374651015
    -0.006951920319236    -0.001354374651015    -0.004092883956145
1 21
    -0.028480996839269     0.000000000000000    -0.127566659520130
     0.000000000000000     0.045549901170447     0.000000000000000
    -0.127566659520130     0.000000000000000    -0.028480996839269
1 22
    -0.028480996839269     0.127566659520130     0.000000000000000
     0.127566659520130    -0.028480996839269     0.000000000000000
     0.000000000000000     0.000000000000000     0.045549901170447
1 23
     0.003492250485643     0.012651466140642     0.003512552935544
     0.012651466140642    -0.012150719281157    -0.012651466140642
     0.003512552935544    -0.012651466140642     0.003492250485643
1 24
     0.000209860807375     0.001354374651015    -0.001354374651015
     0.001354374651015    -0.004092883956145    -0.006951920319236
    -0.001354374651015    -0.006951920319236    -0.004092883956145
1 25
     0.003492250485643    -0.003512552935544    -0.012651466140642
    -0.003512552935544     0.003492250485643    -0.012651466140642
    -0.012651466140642    -0.012651466140642    -0.012150719281157
1 26
    -0.028480996839269    -0.127566659520130    -0.000000000000000
    -0.127566659520130    -0.028480996839269    -0.000000000000000
    -0.000000000000000    -0.000000000000000     0.045549901170447
1 27
     0.003492250485643    -0.012651466140642    -0.003512552935544
    -0.012651466140642    -0.012150719281157    -0.012651466140642
    -0.003512552935544    -0.012651466140642     0.003492250485643
1 28
     0.000209860807375    -0.001354374651015     0.001354374651015
    -0.001354374651015    -0.004092883956145    -0.006951920319236
     0.001354374651015    -0.006951920319236    -0.004092883956145
1 29
     0.003492250485643     0.003512552935544     0.012651466140642
     0.003512552935544     0.003492250485643    -0.012651466140642
     0.012651466140642    -0.012651466140642    -0.012150719281157
1 30
    -0.028480996839269    -0.000000000000000     0.127566659520130
    -0.000000000000000     0.045549901170447     0.000000000000000
     0.127566659520130    -0.000000000000000    -0.028480996839269
1 31
    -0.012150719281157    -0.012651466140642    -0.012651466140642
    -0.012651466140642     0.003492250485643    -0.003512552935544
    -0.012651466140642    -0.003512552935544     0.003492250485643
1 32
    -0.002499065271351    -0.003211855776845    -0.003211855776845
    -0.003211855776845    -0.002499065271351    -0.003211855776845
    -0.003211855776845    -0.003211855776845    -0.002499065271351
1 33
    -0.002499065271351     0.003211855776845     0.003211855776845
     0.003211855776845    -0.002499065271351    -0.003211855776845
     0.003211855776845    -0.003211855776845    -0.002499065271351
1 34
    -0.012150719281157     0.012651466140642     0.012651466140642
     0.012651466140642     0.003492250485643    -0.003512552935544
     0.012651466140642    -0.003512552935544     0.003492250485643
1 35
    -0.078253889613600     0.000000000000000    -0.000000000000000
     0.000000000000000     0.010408108359038    -0.000000000000000
    -0.000000000000000    -0.000000000000000     0.010408108359038
1 36
    -0.004092883956145    -0.001354374651015    -0.006951920319236
    -0.001354374651015     0.000209860807375     0.001354374651015
    -0.006951920319236     0.001354374651015    -0.004092883956145
1 37
    -0.002499065271351     0.003211855776845    -0.003211855776845
     0.003211855776845    -0.002499065271351     0.003211855776845
    -0.003211855776845     0.003211855776845    -0.002499065271351
1 38
    -0.004092883956145     0.006951920319236     0.001354374651015
     0.006951920319236    -0.004092883956145     0.001354374651015
     0.001354374651015     0.001354374651015     0.000209860807375
1 39
    -0.012474927740331     0.006647157296544     0.000000000000000
     0.006647157296544    -0.001029697380045    -0.000000000000000
     0.000000000000000    -0.000000000000000     0.001484774333854
1 40
    -0.012474927740331     0.000000000000000    -0.006647157296544
     0.000000000000000     0.001484774333854    -0.000000000000000
    -0.006647157296544    -0.000000000000000    -0.001029697380045
1 41
     0.003492250485643     0.003512552935544    -0.012651466140642
     0.003512552935544     0.003492250485643     0.012651466140642
    -0.012651466140642     0.012651466140642    -0.012150719281157
1 42
     0.003492250485643     0.012651466140642    -0.003512552935544
     0.012651466140642    -0.012150719281157     0.012651466140642
    -0.003512552935544     0.012651466140642     0.003492250485643
1 43
    -0.001029697380045     0.006647157296544     0.000000000000000
     0.006647157296544    -0.012474927740331    -0.000000000000000
     0.000000000000000    -0.000000000000000     0.001484774333854
1 44
    -0.003581292199957     0.002065458907846    -0.002065458907846
     0.002065458907846    -0.003581292199957    -0.002065458907846
    -0.002065458907846    -0.002065458907846    -0.003581292199957
1 45
    -0.001029697380045     0.000000000000000    -0.006647157296544
     0.000000000000000     0.001484774333854     0.000000000000000
    -0.006647157296544     0.000000000000000    -0.012474927740331
1 46
     0.045549901170447    -0.000000000000000     0.000000000000000
     0.000000000000000    -0.028480996839269     0.127566659520130
     0.000000000000000     0.127566659520130    -0.028480996839269
1 47
     0.010408108359038    -0.000000000000000     0.000000000000000
    -0.000000000000000    -0.078253889613600    -0.000000000000000
     0.000000000000000    -0.000000000000000     0.010408108359038
1 48
     0.001484774333854     0.000000000000000     0.000000000000000
     0.000000000000000    -0.012474927740331    -0.006647157296544
     0.000000000000000    -0.006647157296544    -0.001029697380045
1 49
     0.001484774333854    -0.000000000000000     0.000000000000000
     0.000000000000000    -0.001029697380045    -0.006647157296544
     0.000000000000000    -0.006647157296544    -0.012474927740331
1 50
     0.010408108359038    -0.000000000000000     0.000000000000000
    -0.000000000000000     0.010408108359038     0.000000000000000
     0.000000000000000     0.000000000000000    -0.078253889613600
1 51
    -0.004955377452498    -0.015057308575282    -0.000000000000000
    -0.015057308575282    -0.004955377452498    -0.000000000000000
    -0.000000000000000    -0.000000000000000     0.004534172327721
1 52
    -0.004092883956145    -0.006951920319236     0.001354374651015
    -0.006951920319236    -0.004092883956145    -0.001354374651015
     0.001354374651015    -0.001354374651015     0.000209860807375
1 53
    -0.004092883956145    -0.001354374651015     0.006951920319236
    -0.001354374651015     0.000209860807375    -0.001354374651015
     0.006951920319236    -0.001354374651015    -0.004092883956145
1 54
    -0.004955377452498    -0.000000000000000     0.015057308575282
    -0.000000000000000     0.004534172327721    -0.000000000000000
     0.015057308575282    -0.000000000000000    -0.004955377452498
1 55
    -0.012150719281157    -0.012651466140642     0.012651466140642
    -0.012651466140642     0.003492250485643     0.003512552935544
     0.012651466140642     0.003512552935544     0.003492250485643
1 56
    -0.004092883956145    -0.006951920319236    -0.001354374651015
    -0.006951920319236    -0.004092883956145     0.001354374651015
    -0.001354374651015     0.001354374651015     0.000209860807375
1 57
    -0.002499065271351    -0.003211855776845     0.003211855776845
    -0.003211855776845    -0.002499065271351     0.003211855776845
     0.003211855776845     0.003211855776845    -0.002499065271351
1 58
    -0.004092883956145     0.001354374651015     0.006951920319236
     0.001354374651015     0.000209860807375     0.001354374651015
     0.006951920319236     0.001354374651015    -0.004092883956145
1 59
    -0.012474927740331     0.000000000000000     0.006647157296544
     0.000000000000000     0.001484774333854    -0.000000000000000
     0.006647157296544    -0.000000000000000    -0.001029697380045
1 60
    -0.012474927740331    -0.006647157296544    -0.000000000000000
    -0.006647157296544    -0.001029697380045    -0.000000000000000
    -0.000000000000000    -0.000000000000000     0.001484774333854
1 61
     0.000209860807375    -0.001354374651015    -0.001354374651015
    -0.001354374651015    -0.004092883956145     0.006951920319236
    -0.001354374651015     0.006951920319236    -0.004092883956145
1 62
     0.000209860807375     0.001354374651015     0.001354374651015
     0.001354374651015    -0.004092883956145     0.006951920319236
     0.001354374651015     0.006951920319236    -0.004092883956145
1 63
    -0.003581292199957     0.002065458907846     0.002065458907846
     0.002065458907846    -0.003581292199957     0.002065458907846
     0.002065458907846     0.002065458907846    -0.003581292199957
1 64
    -0.007197436278945     0.000000000000000     0.000000000000000
     0.000000000000000    -0.002699176490427    -0.000000000000000
     0.000000000000000    -0.000000000000000    -0.002699176490427
1 65
    -0.003581292199957    -0.002065458907846    -0.002065458907846
    -0.002065458907846    -0.003581292199957     0.002065458907846
    -0.002065458907846     0.002065458907846    -0.003581292199957
1 66
     0.004534172327721    -0.000000000000000     0.000000000000000
    -0.000000000000000    -0.004955377452498     0.015057308575282
     0.000000000000000     0.015057308575282    -0.004955377452498
1 67
     0.001484774333854    -0.000000000000000     0.000000000000000
    -0.000000000000000    -0.012474927740331     0.006647157296544
     0.000000000000000     0.006647157296544    -0.001029697380045
1 68
    -0.002699176490427     0.000000000000000     0.000000000000000
     0.000000000000000    -0.007197436278945    -0.000000000000000
     0.000000000000000    -0.000000000000000    -0.002699176490427
1 69
    -0.002699176490427     0.000000000000000     0.000000000000000
     0.000000000000000    -0.002699176490427    -0.000000000000000
     0.000000000000000    -0.000000000000000    -0.007197436278945
1 70
     0.001484774333854     0.000000000000000     0.000000000000000
    -0.000000000000000    -0.001029697380045     0.006647157296544
     0.000000000000000     0.006647157296544    -0.012474927740331
1 71
     0.003492250485643    -0.012651466140642     0.003512552935544
    -0.012651466140642    -0.012150719281157     0.012651466140642
     0.003512552935544     0.012651466140642     0.003492250485643
1 72
    -0.001029697380045    -0.006647157296544     0.000000000000000
    -0.006647157296544    -0.012474927740331    -0.000000000000000
     0.000000000000000    -0.000000000000000     0.001484774333854
1 73
    -0.003581292199957    -0.002065458907846     0.002065458907846
    -0.002065458907846    -0.003581292199957    -0.002065458907846
     0.002065458907846    -0.002065458907846    -0.003581292199957
1 74
    -0.001029697380045    -0.000000000000000     0.006647157296544
    -0.000000000000000     0.001484774333854     0.000000000000000
     0.006647157296544     0.000000000000000    -0.012474927740331
1 75
     0.003492250485643    -0.003512552935544     0.012651466140642
    -0.003512552935544     0.003492250485643     0.012651466140642
     0.012651466140642     0.012651466140642    -0.012150719281157
1 76
    -0.004955377452498    -0.015057308575282    -0.000000000000000
    -0.015057308575282    -0.004955377452498    -0.000000000000000
    -0.000000000000000    -0.000000000000000     0.004534172327721
1 77
    -0.012150719281157    -0.012651466140642     0.012651466140642
    -0.012651466140642     0.003492250485643     0.003512552935544
     0.012651466140642     0.003512552935544     0.003492250485643
1 78
    -0.004955377452498    -0.000000000000000     0.015057308575282
    -0.000000000000000     0.004534172327721    -0.000000000000000
     0.015057308575282    -0.000000000000000    -0.004955377452498
1 79
    -0.004092883956145    -0.001354374651015     0.006951920319236
    -0.001354374651015     0.000209860807375    -0.001354374651015
     0.006951920319236    -0.001354374651015    -0.004092883956145
1 80
    -0.004092883956145    -0.006951920319236     0.001354374651015
    -0.006951920319236    -0.004092883956145    -0.001354374651015
     0.001354374651015    -0.001354374651015     0.000209860807375
1 81
     0.003492250485643    -0.012651466140642     0.003512552935544
    -0.012651466140642    -0.012150719281157     0.012651466140642
     0.003512552935544     0.012651466140642     0.003492250485643
1 82
     0.003492250485643    -0.003512552935544     0.012651466140642
    -0.003512552935544     0.003492250485643     0.012651466140642
     0.012651466140642     0.012651466140642    -0.012150719281157
1 83
    -0.001029697380045    -0.000000000000000     0.006647157296544
    -0.000000000000000     0.001484774333854     0.000000000000000
     0.006647157296544     0.000000000000000    -0.012474927740331
1 84
    -0.003581292199957    -0.002065458907846     0.002065458907846
    -0.002065458907846    -0.003581292199957    -0.002065458907846
     0.002065458907846    -0.002065458907846    -0.003581292199957
1 85
    -0.001029697380045    -0.006647157296544     0.000000000000000
    -0.006647157296544    -0.012474927740331    -0.000000000000000
     0.000000000000000    -0.000000000000000     0.001484774333854
1 86
     0.004534172327721    -0.000000000000000     0.000000000000000
    -0.000000000000000    -0.004955377452498     0.015057308575282
     0.000000000000000     0.015057308575282    -0.004955377452498
1 87
     0.001484774333854    -0.000000000000000     0.000000000000000
     0.000000000000000    -0.001029697380045     0.006647157296544
     0.000000000000000     0.006647157296544    -0.012474927740331
1 88
    -0.002699176490427     0.000000000000000     0.000000000000000
     0.000000000000000    -0.002699176490427    -0.000000000000000
     0.000000000000000    -0.000000000000000    -0.007197436278945
1 89
    -0.002699176490427     0.000000000000000     0.000000000000000
     0.000000000000000    -0.007197436278945    -0.000000000000000
     0.000000000000000    -0.000000000000000    -0.002699176490427
1 90
     0.001484774333854    -0.000000000000000     0.000000000000000
    -0.000000000000000    -0.012474927740331     0.006647157296544
     0.000000000000000     0.006647157296544    -0.001029697380045
1 91
     0.000209860807375    -0.001354374651015    -0.001354374651015
    -0.001354374651015    -0.004092883956145     0.006951920319236
    -0.001354374651015     0.006951920319236    -0.004092883956145
1 92
    -0.003581292199957    -0.002065458907846    -0.002065458907846
    -0.002065458907846    -0.003581292199957     0.002065458907846
    -0.002065458907846     0.002065458907846    -0.003581292199957
1 93
    -0.007197436278945     0.000000000000000     0.000000000000000
     0.000000000000000    -0.002699176490427    -0.000000000000000
     0.000000000000000    -0.000000000000000    -0.002699176490427
1 94
    -0.003581292199957     0.002065458907846     0.002065458907846
     0.002065458907846    -0.003581292199957     0.002065458907846
     0.002065458907846     0.002065458907846    -0.003581292199957
1 95
     0.000209860807375     0.001354374651015     0.001354374651015
     0.001354374651015    -0.004092883956145     0.006951920319236
     0.001354374651015     0.006951920319236    -0.004092883956145
1 96
    -0.004092883956145    -0.006951920319236    -0.001354374651015
    -0.006951920319236    -0.004092883956145     0.001354374651015
    -0.001354374651015     0.001354374651015     0.000209860807375
1 97
    -0.012474927740331    -0.006647157296544    -0.000000000000000
    -0.006647157296544    -0.001029697380045    -0.000000000000000
    -0.000000000000000    -0.000000000000000     0.001484774333854
1 98
    -0.012474927740331     0.000000000000000     0.006647157296544
     0.000000000000000     0.001484774333854    -0.000000000000000
     0.006647157296544    -0.000000000000000    -0.001029697380045
1 99
    -0.004092883956145     0.001354374651015     0.006951920319236
     0.001354374651015     0.000209860807375     0.001354374651015
     0.006951920319236     0.001354374651015    -0.004092883956145
1 100
    -0.002499065271351    -0.003211855776845     0.003211855776845
    -0.003211855776845    -0.002499065271351     0.003211855776845
     0.003211855776845     0.003211855776845    -0.002499065271351
1 101
    -0.028480996839269    -0.127566659520130    -0.000000000000000
    -0.127566659520130    -0.028480996839269    -0.000000000000000
    -0.000000000000000    -0.000000000000000     0.045549901170447
1 102
    -0.028480996839269    -0.000000000000000     0.127566659520130
    -0.000000000000000     0.045549901170447    -0.000000000000000
     0.127566659520130     0.000000000000000    -0.028480996839269
1 103
     0.003492250485643     0.003512552935544     0.012651466140642
     0.003512552935544     0.003492250485643    -0.012651466140642
     0.012651466140642    -0.012651466140642    -0.012150719281157
1 104
     0.000209860807375    -0.001354374651015     0.001354374651015
    -0.001354374651015    -0.004092883956145    -0.006951920319236
     0.001354374651015    -0.006951920319236    -0.004092883956145
1 105
     0.003492250485643    -0.012651466140642    -0.003512552935544
    -0.012651466140642    -0.012150719281157    -0.012651466140642
    -0.003512552935544    -0.012651466140642     0.003492250485643
1 106
     0.045549901170447     0.000000000000000     0.000000000000000
    -0.000000000000000    -0.028480996839269     0.127566659520130
     0.000000000000000     0.127566659520130    -0.028480996839269
1 107
     0.010408108359038    -0.000000000000000     0.000000000000000
    -0.000000000000000     0.010408108359038     0.000000000000000
     0.000000000000000     0.000000000000000    -0.078253889613600
1 108
     0.001484774333854     0.000000000000000     0.000000000000000
    -0.000000000000000    -0.001029697380045    -0.006647157296544
     0.000000000000000    -0.006647157296544    -0.012474927740331
1 109
     0.001484774333854     0.000000000000000     0.000000000000000
     0.000000000000000    -0.012474927740331    -0.006647157296544
     0.000000000000000    -0.006647157296544    -0.001029697380045
1 110
     0.010408108359038    -0.000000000000000     0.000000000000000
    -0.000000000000000    -0.078253889613600    -0.000000000000000
     0.000000000000000    -0.000000000000000     0.010408108359038
1 111
     0.003492250485643     0.003512552935544    -0.012651466140642
     0.003512552935544     0.003492250485643     0.012651466140642
    -0.012651466140642     0.012651466140642    -0.012150719281157
1 112
    -0.001029697380045     0.000000000000000    -0.006647157296544
     0.000000000000000     0.001484774333854     0.000000000000000
    -0.006647157296544     0.000000000000000    -0.012474927740331
1 113
    -0.003581292199957     0.002065458907846    -0.002065458907846
     0.002065458907846    -0.003581292199957    -0.002065458907846
    -0.002065458907846    -0.002065458907846    -0.003581292199957
1 114
    -0.001029697380045     0.006647157296544     0.000000000000000
     0.006647157296544    -0.012474927740331    -0.000000000000000
     0.000000000000000    -0.000000000000000     0.001484774333854
1 115
     0.003492250485643     0.012651466140642    -0.003512552935544
     0.012651466140642    -0.012150719281157     0.012651466140642
    -0.003512552935544     0.012651466140642     0.003492250485643
1 116
    -0.004092883956145    -0.001354374651015    -0.006951920319236
    -0.001354374651015     0.000209860807375     0.001354374651015
    -0.006951920319236     0.001354374651015    -0.004092883956145
1 117
    -0.012474927740331     0.000000000000000    -0.006647157296544
     0.000000000000000     0.001484774333854    -0.000000000000000
    -0.006647157296544    -0.000000000000000    -0.001029697380045
1 118
    -0.012474927740331     0.006647157296544     0.000000000000000
     0.006647157296544    -0.001029697380045    -0.000000000000000
     0.000000000000000    -0.000000000000000     0.001484774333854
1 119
    -0.004092883956145     0.006951920319236     0.001354374651015
     0.006951920319236    -0.004092883956145     0.001354374651015
     0.001354374651015     0.001354374651015     0.000209860807375
1 120
    -0.002499065271351     0.003211855776845    -0.003211855776845
     0.003211855776845    -0.002499065271351     0.003211855776845
    -0.003211855776845     0.003211855776845    -0.002499065271351
1 121
    -0.012150719281157    -0.012651466140642    -0.012651466140642
    -0.012651466140642     0.003492250485643    -0.003512552935544
    -0.012651466140642    -0.003512552935544     0.003492250485643
1 122
    -0.078253889613600     0.000000000000000    -0.000000000000000
     0.000000000000000     0.010408108359038    -0.000000000000000
    -0.000000000000000    -0.000000000000000     0.010408108359038
1 123
    -0.012150719281157     0.012651466140642     0.012651466140642
     0.012651466140642     0.003492250485643    -0.003512552935544
     0.012651466140642    -0.003512552935544     0.003492250485643
1 124
    -0.002499065271351     0.003211855776845     0.003211855776845
     0.003211855776845    -0.002499065271351    -0.003211855776845
     0.003211855776845    -0.003211855776845    -0.002499065271351
1 125
    -0.002499065271351    -0.003211855776845    -0.003211855776845
    -0.003211855776845    -0.002499065271351    -0.003211855776845
    -0.003211855776845    -0.003211855776845    -0.002499065271351
1 126
    -0.003065855197092     0.030884214493537     0.030884214493537
     0.030884214493537    -0.003065855197092     0.030884214493537
     0.030884214493537     0.030884214493537    -0.003065855197092
1 127
    -0.001566081714196     0.003636208233904     0.003636208233904
     0.003217070689356     0.004279216492483     0.009635655718881
     0.003217070689356     0.009635655718881     0.004279216492483
1 128
    -0.001566081714196    -0.003636208233904    -0.003636208233904
    -0.003217070689356     0.004279216492483     0.009635655718881
    -0.003217070689356     0.009635655718881     0.004279216492483
1 129
    -0.003065855197092    -0.030884214493537    -0.030884214493537
    -0.030884214493537    -0.003065855197092     0.030884214493537
    -0.030884214493537     0.030884214493537    -0.003065855197092
1 130
    -0.379687367089709     0.000000000000000    -0.000000000000000
     0.000000000000000    -0.111999720702871    -0.000000000000000
    -0.000000000000000    -0.000000000000000    -0.111999720702871
1 131
     0.004279216492483     0.003217070689356     0.009635655718881
     0.003636208233904    -0.001566081714196     0.003636208233904
     0.009635655718881     0.003217070689356     0.004279216492483
1 132
     0.002617692333390    -0.002116900926177     0.002116900926177
    -0.002116900926177     0.002617692333390     0.002116900926177
     0.002116900926177     0.002116900926177     0.002617692333390
1 133
     0.004279216492483    -0.009635655718881    -0.003217070689356
    -0.009635655718881     0.004279216492483     0.003217070689356
    -0.003636208233904     0.003636208233904    -0.001566081714196
1 134
     0.025124724401862    -0.025669301982286    -0.000000000000000
    -0.019638653410589    -0.005316841246652    -0.000000000000000
     0.000000000000000    -0.000000000000000    -0.009346554404287
1 135
     0.025124724401862    -0.000000000000000     0.025669301982286
    -0.000000000000000    -0.009346554404287    -0.000000000000000
     0.019638653410589    -0.000000000000000    -0.005316841246652
1 136
     0.004279216492483    -0.003217070689356     0.009635655718881
    -0.003636208233904    -0.001566081714196    -0.003636208233904
     0.009635655718881    -0.003217070689356     0.004279216492483
1 137
     0.004279216492483    -0.009635655718881     0.003217070689356
    -0.009635655718881     0.004279216492483    -0.003217070689356
     0.003636208233904    -0.003636208233904    -0.001566081714196
1 138
     0.005648528774251    -0.009538340148121     0.000000000000000
    -0.009538340148121     0.005648528774251    -0.000000000000000
     0.000000000000000    -0.000000000000000    -0.002130176148887
1 139
     0.008081859985009    -0.004882218770703     0.004882218770703
    -0.004640830193275     0.000563370357348     0.000061164736573
     0.004640830193275     0.000061164736573     0.000563370357348
1 140
     0.005648528774251     0.000000000000000     0.009538340148121
    -0.000000000000000    -0.002130176148887    -0.000000000000000
     0.009538340148121    -0.000000000000000     0.005648528774251
1 141
    -0.003065855197092    -0.030884214493537     0.030884214493537
    -0.030884214493537    -0.003065855197092    -0.030884214493537
     0.030884214493537    -0.030884214493537    -0.003065855197092
1 142
    -0.005316841246652    -0.019638653410589    -0.000000000000000
    -0.025669301982286     0.025124724401862     0.000000000000000
    -0.000000000000000    -0.000000000000000    -0.009346554404287
1 143
     0.000563370357348    -0.004640830193275     0.000061164736573
    -0.004882218770703     0.008081859985009     0.004882218770703
     0.000061164736573     0.004640830193275     0.000563370357348
1 144
     0.000563370357348    -0.000061164736573     0.004640830193275
    -0.000061164736573     0.000563370357348     0.004640830193275
     0.004882218770703     0.004882218770703     0.008081859985009
1 145
    -0.005316841246652     0.000000000000000     0.019638653410589
    -0.000000000000000    -0.009346554404287    -0.000000000000000
     0.025669301982286    -0.000000000000000     0.025124724401862
1 146
    -0.111999720702871     0.000000000000000    -0.000000000000000