250  
2    

1    
  0.0000000000000000   0.0070710678118655   0.0070710678118655
   0.0000000000   -0.0094633100   -0.0094633100
   0.0000000000    0.0011080000    0.0011080000
   0.0000000000    0.0001415200    0.0001415200
   0.0000000000    0.0001415900    0.0001415900
   0.0000000000    0.0010989600    0.0010989600
   0.0009029400   -0.0003234000    0.0002007600
   0.0001144400    0.0000646700    0.0001756100
   0.0000003100    0.0000780700    0.0000781200
  -0.0001142100    0.0001750200    0.0000649800
  -0.0009010100    0.0002019900   -0.0003207900
   0.0001063800   -0.0000320400    0.0000349200
   0.0000397500    0.0000082100    0.0000386600
  -0.0000394900    0.0000383600    0.0000080100
  -0.0001064900    0.0000351100   -0.0000321000
   0.0000000000   -0.0000495000   -0.0000496600
   0.0001064900   -0.0000321000    0.0000351100
  -0.0000000000   -0.0000496600   -0.0000495000
  -0.0001063800    0.0000349200   -0.0000320400
  -0.0000397500    0.0000386600    0.0000082100
   0.0000394900    0.0000080100    0.0000383600
   0.0009010100   -0.0003207900    0.0002019900
  -0.0009029400    0.0002007600   -0.0003234000
  -0.0001144400    0.0001756100    0.0000646700
  -0.0000003100    0.0000781200    0.0000780700
   0.0001142100    0.0000649800    0.0001750200
   0.0009029400    0.0002007600   -0.0003234000
   0.0001144400    0.0001756100    0.0000646700
   0.0000003100    0.0000781200    0.0000780700
  -0.0001142100    0.0000649800    0.0001750200
  -0.0009010100   -0.0003207900    0.0002019900
   0.0001792700   -0.0000000900   -0.0000000900
   0.0000453900    0.0000404600    0.0000404600
  -0.0000453100    0.0000403600    0.0000403600
  -0.0001785400    0.0000002900    0.0000002900
  -0.0000010800   -0.0000736000   -0.0000736000
   0.0000587100   -0.0000110500    0.0000193200
   0.0000001300   -0.0000051200   -0.0000050500
  -0.0000587200    0.0000193300   -0.0000111400
  -0.0000468800    0.0000074400   -0.0000103200
   0.0000471700   -0.0000106100    0.0000071100
   0.0000647400   -0.0001140500   -0.0000033900
  -0.0000645700   -0.0000036000   -0.0001142600
  -0.0000469300    0.0000882700   -0.0000106900
   0.0000001200    0.0000402400    0.0000397300
   0.0000470300   -0.0000104100    0.0000879500
   0.0000000000   -0.0007018400   -0.0006995600
   0.0000000000    0.0005532500   -0.0000737700
   0.0000000000    0.0001356200    0.0000541300
   0.0000000000    0.0000545100    0.0001348800
   0.0000000000   -0.0000734500    0.0005534100
   0.0001063800    0.0000349200   -0.0000320400
   0.0000397500    0.0000386600    0.0000082100
  -0.0000394900    0.0000080100    0.0000383600
  -0.0001064900   -0.0000321000    0.0000351100
   0.0000000000   -0.0000496600   -0.0000495000
   0.0000587100    0.0000193200   -0.0000110500
   0.0000001300   -0.0000050500   -0.0000051200
  -0.0000587200   -0.0000111400    0.0000193300
  -0.0000468800   -0.0000103200    0.0000074400
   0.0000471700    0.0000071100   -0.0000106100
   0.0000192000   -0.0000201800   -0.0000201800
  -0.0000190600   -0.0000202200   -0.0000202200
  -0.0000287500    0.0000108200    0.0000108200
   0.0000001900    0.0000191400    0.0000191400
   0.0000294100    0.0000104700    0.0000104700
   0.0000000000   -0.0000714600   -0.0000714600
   0.0000000000    0.0000416000   -0.0000398800
   0.0000000000    0.0000512100    0.0000188700
   0.0000000000    0.0000191600    0.0000505600
   0.0000000000   -0.0000396800    0.0000410800
   0.0000645700   -0.0000036000   -0.0001142600
   0.0000469300    0.0000882700   -0.0000106900
  -0.0000001200    0.0000402400    0.0000397300
  -0.0000470300   -0.0000104100    0.0000879500
  -0.0000647400   -0.0001140500   -0.0000033900
   0.0001064900    0.0000351100   -0.0000321000
  -0.0000000000   -0.0000495000   -0.0000496600
  -0.0001063800   -0.0000320400    0.0000349200
  -0.0000397500    0.0000082100    0.0000386600
   0.0000394900    0.0000383600    0.0000080100
   0.0000647400   -0.0000033900   -0.0001140500
  -0.0000645700   -0.0001142600   -0.0000036000
  -0.0000469300   -0.0000106900    0.0000882700
   0.0000001200    0.0000397300    0.0000402400
   0.0000470300    0.0000879500   -0.0000104100
   0.0000000000   -0.0000714600   -0.0000714600
   0.0000000000   -0.0000398800    0.0000416000
   0.0000000000    0.0000188700    0.0000512100
   0.0000000000    0.0000505600    0.0000191600
  -0.0000000000    0.0000410800   -0.0000396800
   0.0000190600   -0.0000202200   -0.0000202200
   0.0000287500    0.0000108200    0.0000108200
  -0.0000001900    0.0000191400    0.0000191400
  -0.0000294100    0.0000104700    0.0000104700
  -0.0000192000   -0.0000201800   -0.0000201800
   0.0000587200    0.0000193300   -0.0000111400
   0.0000468800    0.0000074400   -0.0000103200
  -0.0000471700   -0.0000106100    0.0000071100
  -0.0000587100   -0.0000110500    0.0000193200
  -0.0000001300   -0.0000051200   -0.0000050500
   0.0009010100    0.0002019900   -0.0003207900
  -0.0009029400   -0.0003234000    0.0002007600
  -0.0001144400    0.0000646700    0.0001756100
  -0.0000003100    0.0000780700    0.0000781200
   0.0001142100    0.0001750200    0.0000649800
   0.0000000000   -0.0006995600   -0.0007018400
  -0.0000000000   -0.0000737700    0.0005532500
   0.0000000000    0.0000541300    0.0001356200
   0.0000000000    0.0001348800    0.0000545100
   0.0000000000    0.0005534100   -0.0000734500
   0.0000645700   -0.0001142600   -0.0000036000
   0.0000469300   -0.0000106900    0.0000882700
  -0.0000001200    0.0000397300    0.0000402400
  -0.0000470300    0.0000879500   -0.0000104100
  -0.0000647400   -0.0000033900   -0.0001140500
   0.0000587200   -0.0000111400    0.0000193300
   0.0000468800   -0.0000103200    0.0000074400
  -0.0000471700    0.0000071100   -0.0000106100
  -0.0000587100    0.0000193200   -0.0000110500
  -0.0000001300   -0.0000050500   -0.0000051200
   0.0001785400    0.0000002900    0.0000002900
   0.0000010800   -0.0000736000   -0.0000736000
  -0.0001792700   -0.0000000900   -0.0000000900
  -0.0000453900    0.0000404600    0.0000404600
   0.0000453100    0.0000403600    0.0000403600
  -0.0004371800   -0.0001970000   -0.0001970000
  -0.0000448200   -0.0000979700   -0.0000979700
   0.0000462000   -0.0000987600   -0.0000987600
   0.0004355800   -0.0001959700   -0.0001959700
  -0.0000048500    0.0007916400    0.0007916400
  -0.0000932000   -0.0000116400   -0.0000558400
   0.0000000600   -0.0000335700   -0.0000333100
   0.0000946200   -0.0000559600   -0.0000116900
   0.0001389900    0.0000372200    0.0000658800
  -0.0001385100    0.0000661500    0.0000380500
  -0.0000433100    0.0000341200   -0.0000049600
   0.0000415500   -0.0000039700    0.0000337600
   0.0000673900   -0.0000399500    0.0000145000
  -0.0000006600   -0.0000045800   -0.0000042800
  -0.0000676100    0.0000155100   -0.0000400500
  -0.0000004800    0.0002396400    0.0002401600
   0.0001809500   -0.0001776500    0.0000664700
   0.0000343600   -0.0000903500   -0.0000381300
  -0.0000338100   -0.0000388900   -0.0000896400
  -0.0001815400    0.0000656300   -0.0001774100
  -0.0000000000    0.0027400500    0.0007878500
   0.0000000000   -0.0003162000   -0.0001440700
   0.0000000000   -0.0001064400   -0.0001084500
   0.0000000000   -0.0001434100   -0.0003161400
  -0.0000000000    0.0007950600    0.0026294100
  -0.0000932000   -0.0000558400   -0.0000116400
   0.0000000600   -0.0000333100   -0.0000335700
   0.0000946200   -0.0000116900   -0.0000559600
   0.0001389900    0.0000658800    0.0000372200
  -0.0001385100    0.0000380500    0.0000661500
  -0.0000297700   -0.0000040200   -0.0000040200
   0.0000300800   -0.0000029900   -0.0000029900
   0.0000651100   -0.0000040900   -0.0000040900
   0.0000003300    0.0000144200    0.0000144200
  -0.0000661000   -0.0000032100   -0.0000032100
  -0.0000002900    0.0000388600    0.0000369700
   0.0000341000   -0.0000241500    0.0000299300
   0.0000196400   -0.0000338900   -0.0000099200
  -0.0000209500   -0.0000097600   -0.0000342000
  -0.0000356100    0.0000309800   -0.0000245500
  -0.0000000000   -0.0000385900    0.0002190500
  -0.0000000000   -0.0001408900    0.0000149700
   0.0000000000   -0.0000552500   -0.0000535100
   0.0000000000    0.0000139300   -0.0001404900
  -0.0000000000    0.0002188400   -0.0000389100
  -0.0001809500   -0.0001776500    0.0000664700
  -0.0000343600   -0.0000903500   -0.0000381300
   0.0000338100   -0.0000388900   -0.0000896400
   0.0001815400    0.0000656300   -0.0001774100
   0.0000004800    0.0002396400    0.0002401600
  -0.0000433100   -0.0000049600    0.0000341200
   0.0000415500    0.0000337600   -0.0000039700
   0.0000673900    0.0000145000   -0.0000399500
  -0.0000006600   -0.0000042800   -0.0000045800
  -0.0000676100   -0.0000400500    0.0000155100
  -0.0000002900    0.0000369700    0.0000388600
   0.0000341000    0.0000299300   -0.0000241500
   0.0000196400   -0.0000099200   -0.0000338900
  -0.0000209500   -0.0000342000   -0.0000097600
  -0.0000356100   -0.0000245500    0.0000309800
   0.0000000000    0.0000276900    0.0000276900
   0.0000000000   -0.0000142300   -0.0000142300
   0.0000000000   -0.0000275100   -0.0000275100
   0.0000000000   -0.0000133500   -0.0000133500
   0.0000000000    0.0000272700    0.0000272700
  -0.0000341000   -0.0000241500    0.0000299300
  -0.0000196400   -0.0000338900   -0.0000099200
   0.0000209500   -0.0000097600   -0.0000342000
   0.0000356100    0.0000309800   -0.0000245500
   0.0000002900    0.0000388600    0.0000369700
  -0.0000673900   -0.0000399500    0.0000145000
   0.0000006600   -0.0000045800   -0.0000042800
   0.0000676100    0.0000155100   -0.0000400500
   0.0000433100    0.0000341200   -0.0000049600
  -0.0000415500   -0.0000039700    0.0000337600
  -0.0000004800    0.0002401600    0.0002396400
   0.0001809500    0.0000664700   -0.0001776500
   0.0000343600   -0.0000381300   -0.0000903500
  -0.0000338100   -0.0000896400   -0.0000388900
  -0.0001815400   -0.0001774100    0.0000656300
  -0.0000000000    0.0002190500   -0.0000385900
  -0.0000000000    0.0000149700   -0.0001408900
   0.0000000000   -0.0000535100   -0.0000552500
   0.0000000000   -0.0001404900    0.0000139300
  -0.0000000000   -0.0000389100    0.0002188400
  -0.0000341000    0.0000299300   -0.0000241500
  -0.0000196400   -0.0000099200   -0.0000338900
   0.0000209500   -0.0000342000   -0.0000097600
   0.0000356100   -0.0000245500    0.0000309800
   0.0000002900    0.0000369700    0.0000388600
  -0.0000651100   -0.0000040900   -0.0000040900
  -0.0000003300    0.0000144200    0.0000144200
   0.0000661000   -0.0000032100   -0.0000032100
   0.0000297700   -0.0000040200   -0.0000040200
  -0.0000300800   -0.0000029900   -0.0000029900
  -0.0001389900    0.0000372200    0.0000658800
   0.0001385100    0.0000661500    0.0000380500
   0.0000932000   -0.0000116400   -0.0000558400
  -0.0000000600   -0.0000335700   -0.0000333100
  -0.0000946200   -0.0000559600   -0.0000116900
  -0.0000000000    0.0007878500    0.0027400500
   0.0000000000   -0.0001440700   -0.0003162000
   0.0000000000   -0.0001084500   -0.0001064400
   0.0000000000   -0.0003161400   -0.0001434100
  -0.0000000000    0.0026294100    0.0007950600
  -0.0001809500    0.0000664700   -0.0001776500
  -0.0000343600   -0.0000381300   -0.0000903500
   0.0000338100   -0.0000896400   -0.0000388900
   0.0001815400   -0.0001774100    0.0000656300
   0.0000004800    0.0002401600    0.0002396400
  -0.0000673900    0.0000145000   -0.0000399500
   0.0000006600   -0.0000042800   -0.0000045800
   0.0000676100   -0.0000400500    0.0000155100
   0.0000433100   -0.0000049600    0.0000341200
  -0.0000415500    0.0000337600   -0.0000039700
  -0.0001389900    0.0000658800    0.0000372200
   0.0001385100    0.0000380500    0.0000661500
   0.0000932000   -0.0000558400   -0.0000116400
  -0.0000000600   -0.0000333100   -0.0000335700
  -0.0000946200   -0.0000116900   -0.0000559600
   0.0000048500    0.0007916400    0.0007916400
   0.0004371800   -0.0001970000   -0.0001970000
   0.0000448200   -0.0000979700   -0.0000979700
  -0.0000462000   -0.0000987600   -0.0000987600
  -0.0004355800   -0.0001959700   -0.0001959700

126  
  0.0000000000000000   0.0070710678118655   0.0070710678118655
  -0.0004360100   -0.0001969500   -0.0001969500
   0.0000039400    0.0007924000    0.0007924000
   0.0004382700   -0.0001969200   -0.0001969200
   0.0000514100   -0.0000984300   -0.0000984300
  -0.0000515100   -0.0000983600   -0.0000983600
   0.0000000000    0.0026314200    0.0007971400
   0.0000000000    0.0007875300    0.0027383000
   0.0000000000   -0.0001015700   -0.0003601400
   0.0000000000   -0.0001074500   -0.0001072100
  -0.0000000000   -0.0003590400   -0.0001012200
   0.0000002500    0.0002399500    0.0002405200
  -0.0001392600    0.0000663200   -0.0001776100
  -0.0000323800   -0.0000367800   -0.0000917500
   0.0000321400   -0.0000915700   -0.0000368200
   0.0001387800   -0.0001779000    0.0000659900
  -0.0000453600    0.0000366300   -0.0000075300
  -0.0000674500    0.0000150600   -0.0000399300
  -0.0000000100   -0.0000044400   -0.0000043000
   0.0000673200   -0.0000398500    0.0000151800
   0.0000454800   -0.0000076800    0.0000367100
  -0.0000907800   -0.0000146700   -0.0000530000
  -0.0001819400    0.0000661000    0.0000373100
   0.0001815600    0.0000378000    0.0000661800
   0.0000908900   -0.0000531200   -0.0000146300
   0.0000000900   -0.0000334900   -0.0000335400
   0.0000000000    0.0007971400    0.0026314200
  -0.0000000000    0.0027383000    0.0007875300
  -0.0000000000   -0.0003601400   -0.0001015700
   0.0000000000   -0.0001072100   -0.0001074500
  -0.0000000000   -0.0001012200   -0.0003590400
  -0.0000039400    0.0007924000    0.0007924000
  -0.0004382700   -0.0001969200   -0.0001969200
  -0.0000514100   -0.0000984300   -0.0000984300
   0.0000515100   -0.0000983600   -0.0000983600
   0.0004360100   -0.0001969500   -0.0001969500
  -0.0001815600    0.0000661800    0.0000378000
  -0.0000908900   -0.0000146300   -0.0000531200
  -0.0000000900   -0.0000335400   -0.0000334900
   0.0000907800   -0.0000530000   -0.0000146700
   0.0001819400    0.0000373100    0.0000661000
  -0.0000673200    0.0000151800   -0.0000398500
  -0.0000454800    0.0000367100   -0.0000076800
   0.0000453600   -0.0000075300    0.0000366300
   0.0000674500   -0.0000399300    0.0000150600
   0.0000000100   -0.0000043000   -0.0000044400
  -0.0001387800    0.0000659900   -0.0001779000
  -0.0000002500    0.0002405200    0.0002399500
   0.0001392600   -0.0001776100    0.0000663200
   0.0000323800   -0.0000917500   -0.0000367800
  -0.0000321400   -0.0000368200   -0.0000915700
   0.0000002500    0.0002405200    0.0002399500
  -0.0001392600   -0.0001776100    0.0000663200
  -0.0000323800   -0.0000917500   -0.0000367800
   0.0000321400   -0.0000368200   -0.0000915700
   0.0001387800    0.0000659900   -0.0001779000
  -0.0001815600    0.0000378000    0.0000661800
  -0.0000908900   -0.0000531200   -0.0000146300
  -0.0000000900   -0.0000334900   -0.0000335400
   0.0000907800   -0.0000146700   -0.0000530000
   0.0001819400    0.0000661000    0.0000373100
  -0.0000691700   -0.0000035500   -0.0000035500
  -0.0000298000   -0.0000035600   -0.0000035600
   0.0000301100   -0.0000036000   -0.0000036000
   0.0000692300   -0.0000034300   -0.0000034300
   0.0000003700    0.0000140700    0.0000140700
  -0.0000331700    0.0000289200   -0.0000226300
   0.0000000500    0.0000380000    0.0000376100
   0.0000334100   -0.0000225400    0.0000289300
   0.0000206100   -0.0000341200   -0.0000100900
  -0.0000204300   -0.0000100400   -0.0000341300
  -0.0000000000    0.0001762700    0.0000035700
   0.0000000000    0.0000040500    0.0001768800
   0.0000000000   -0.0001411100    0.0000143000
   0.0000000000   -0.0000546400   -0.0000546000
  -0.0000000000    0.0000142300   -0.0001408100
  -0.0000453600   -0.0000075300    0.0000366300
  -0.0000674500   -0.0000399300    0.0000150600
  -0.0000000100   -0.0000043000   -0.0000044400
   0.0000673200    0.0000151800   -0.0000398500
   0.0000454800    0.0000367100   -0.0000076800
  -0.0000673200   -0.0000398500    0.0000151800
  -0.0000454800   -0.0000076800    0.0000367100
   0.0000453600    0.0000366300   -0.0000075300
   0.0000674500    0.0000150600   -0.0000399300
   0.0000000100   -0.0000044400   -0.0000043000
  -0.0000331700   -0.0000226300    0.0000289200
   0.0000000500    0.0000376100    0.0000380000
   0.0000334100    0.0000289300   -0.0000225400
   0.0000206100   -0.0000100900   -0.0000341200
  -0.0000204300   -0.0000341300   -0.0000100400
   0.0000000000    0.0000274100    0.0000274100
   0.0000000000    0.0000276800    0.0000276800
   0.0000000000   -0.0000134400   -0.0000134400
   0.0000000000   -0.0000278200   -0.0000278200
   0.0000000000   -0.0000135800   -0.0000135800
  -0.0000000500    0.0000380000    0.0000376100
  -0.0000334100   -0.0000225400    0.0000289300
  -0.0000206100   -0.0000341200   -0.0000100900
   0.0000204300   -0.0000100400   -0.0000341300
   0.0000331700    0.0000289200   -0.0000226300
  -0.0000907800   -0.0000530000   -0.0000146700
  -0.0001819400    0.0000373100    0.0000661000
   0.0001815600    0.0000661800    0.0000378000
   0.0000908900   -0.0000146300   -0.0000531200
   0.0000000900   -0.0000335400   -0.0000334900
  -0.0001387800   -0.0001779000    0.0000659900
  -0.0000002500    0.0002399500    0.0002405200
   0.0001392600    0.0000663200   -0.0001776100
   0.0000323800   -0.0000367800   -0.0000917500
  -0.0000321400   -0.0000915700   -0.0000368200
   0.0000000000    0.0000035700    0.0001762700
   0.0000000000    0.0001768800    0.0000040500
   0.0000000000    0.0000143000   -0.0001411100
   0.0000000000   -0.0000546000   -0.0000546400
   0.0000000000   -0.0001408100    0.0000142300
  -0.0000000500    0.0000376100    0.0000380000
  -0.0000334100    0.0000289300   -0.0000225400
  -0.0000206100   -0.0000100900   -0.0000341200
   0.0000204300   -0.0000341300   -0.0000100400
   0.0000331700   -0.0000226300    0.0000289200
  -0.0000301100   -0.0000036000   -0.0000036000
  -0.0000692300   -0.0000034300   -0.0000034300
  -0.0000003700    0.0000140700    0.0000140700
   0.0000691700   -0.0000035500   -0.0000035500
   0.0000298000   -0.0000035600   -0.0000035600
   0.0000000000   -0.0093685900   -0.0093685900
   0.0000000000    0.0008956600    0.0008956600
   0.0000000000    0.0001603900    0.0001603900
   0.0000000000    0.0001602700    0.0001602700
   0.0000000000    0.0008909000    0.0008909000
   0.0006921800   -0.0003146500    0.0001998200
   0.0001240200    0.0000549200    0.0001616100
   0.0000001800    0.0000782200    0.0000782800
  -0.0001235700    0.0001616100    0.0000550400
  -0.0006917500    0.0002021100   -0.0003132100
   0.0001032500   -0.0000311700    0.0000569800
   0.0000395700    0.0000057800    0.0000387900
  -0.0000394800    0.0000387700    0.0000057500
  -0.0001032800    0.0000570900   -0.0000311600
  -0.0000000700   -0.0000689000   -0.0000690700
   0.0001032800   -0.0000311600    0.0000570900
   0.0000000700   -0.0000690700   -0.0000689000
  -0.0001032500    0.0000569800   -0.0000311700
  -0.0000395700    0.0000387900    0.0000057800
   0.0000394800    0.0000057500    0.0000387700
   0.0006917500   -0.0003132100    0.0002021100
  -0.0006921800    0.0001998200   -0.0003146500
  -0.0001240200    0.0001616100    0.0000549200
  -0.0000001800    0.0000782800    0.0000782200
   0.0001235700    0.0000550400    0.0001616100
   0.0006921800    0.0001998200   -0.0003146500
   0.0001240200    0.0001616100    0.0000549200
   0.0000001800    0.0000782800    0.0000782200
  -0.0001235700    0.0000550400    0.0001616100
  -0.0006917500   -0.0003132100    0.0002021100
   0.0001601400    0.0000186600    0.0000186600
   0.0000441600    0.0000397400    0.0000397400
  -0.0000438900    0.0000397600    0.0000397600
  -0.0001601900    0.0000188100    0.0000188100
  -0.0000012600   -0.0001073700   -0.0001073700
   0.0000552200   -0.0000096700    0.0000231700
   0.0000000400   -0.0000042300   -0.0000043900
  -0.0000551600    0.0000232000   -0.0000098600
  -0.0000517500    0.0000052900   -0.0000143100
   0.0000517200   -0.0000143300    0.0000051500
   0.0000362400   -0.0001051100    0.0000014000
  -0.0000362600    0.0000013400   -0.0001052200
  -0.0000516900    0.0000819000   -0.0000143300
   0.0000000200    0.0000370900    0.0000368400
   0.0000516500   -0.0000141400    0.0000817300
   0.0000000000   -0.0004924400   -0.0004897500
  -0.0000000000    0.0005472400   -0.0001073200
   0.0000000000    0.0001336500    0.0000567600
   0.0000000000    0.0000570700    0.0001332400
   0.0000000000   -0.0001071500    0.0005452300
   0.0001032500    0.0000569800   -0.0000311700
   0.0000395700    0.0000387900    0.0000057800
  -0.0000394800    0.0000057500    0.0000387700
  -0.0001032800   -0.0000311600    0.0000570900
  -0.0000000700   -0.0000690700   -0.0000689000
   0.0000552200    0.0000231700   -0.0000096700
   0.0000000400   -0.0000043900   -0.0000042300
  -0.0000551600   -0.0000098600    0.0000232000
  -0.0000517500   -0.0000143100    0.0000052900
   0.0000517200    0.0000051500   -0.0000143300
   0.0000156200   -0.0000164300   -0.0000164300
  -0.0000155900   -0.0000164000   -0.0000164000
  -0.0000280200    0.0000089700    0.0000089700
   0.0000000600    0.0000145900    0.0000145900
   0.0000282200    0.0000090000    0.0000090000
   0.0000000000   -0.0000463200   -0.0000464400
   0.0000000000    0.0000301400   -0.0000464900
   0.0000000000    0.0000483200    0.0000146400
   0.0000000000    0.0000147000    0.0000480800
   0.0000000000   -0.0000462600    0.0000299000
   0.0000362600    0.0000013400   -0.0001052200
   0.0000516900    0.0000819000   -0.0000143300
  -0.0000000200    0.0000370900    0.0000368400
  -0.0000516500   -0.0000141400    0.0000817300
  -0.0000362400   -0.0001051100    0.0000014000
   0.0001032800    0.0000570900   -0.0000311600
   0.0000000700   -0.0000689000   -0.0000690700
  -0.0001032500   -0.0000311700    0.0000569800
  -0.0000395700    0.0000057800    0.0000387900
   0.0000394800    0.0000387700    0.0000057500
   0.0000362400    0.0000014000   -0.0001051100
  -0.0000362600   -0.0001052200    0.0000013400
  -0.0000516900   -0.0000143300    0.0000819000
   0.0000000200    0.0000368400    0.0000370900
   0.0000516500    0.0000817300   -0.0000141400
   0.0000000000   -0.0000464400   -0.0000463200
   0.0000000000   -0.0000464900    0.0000301400
   0.0000000000    0.0000146400    0.0000483200
   0.0000000000    0.0000480800    0.0000147000
   0.0000000000    0.0000299000   -0.0000462600
   0.0000155900   -0.0000164000   -0.0000164000
   0.0000280200    0.0000089700    0.0000089700
  -0.0000000600    0.0000145900    0.0000145900
  -0.0000282200    0.0000090000    0.0000090000
  -0.0000156200   -0.0000164300   -0.0000164300
   0.0000551600    0.0000232000   -0.0000098600
   0.0000517500    0.0000052900   -0.0000143100
  -0.0000517200   -0.0000143300    0.0000051500
  -0.0000552200   -0.0000096700    0.0000231700
  -0.0000000400   -0.0000042300   -0.0000043900
   0.0006917500    0.0002021100   -0.0003132100
  -0.0006921800   -0.0003146500    0.0001998200
  -0.0001240200    0.0000549200    0.0001616100
  -0.0000001800    0.0000782200    0.0000782800
   0.0001235700    0.0001616100    0.0000550400
   0.0000000000   -0.0004897500   -0.0004924400
   0.0000000000   -0.0001073200    0.0005472400
   0.0000000000    0.0000567600    0.0001336500
   0.0000000000    0.0001332400    0.0000570700
   0.0000000000    0.0005452300   -0.0001071500
   0.0000362600   -0.0001052200    0.0000013400
   0.0000516900   -0.0000143300    0.0000819000
  -0.0000000200    0.0000368400    0.0000370900
  -0.0000516500    0.0000817300   -0.0000141400
  -0.0000362400    0.0000014000   -0.0001051100
   0.0000551600   -0.0000098600    0.0000232000
   0.0000517500   -0.0000143100    0.0000052900
  -0.0000517200    0.0000051500   -0.0000143300
  -0.0000552200    0.0000231700   -0.0000096700
  -0.0000000400   -0.0000043900   -0.0000042300
   0.0001601900    0.0000188100    0.0000188100
   0.0000012600   -0.0001073700   -0.0001073700
  -0.0001601400    0.0000186600    0.0000186600
  -0.0000441600    0.0000397400    0.0000397400
   0.0000438900    0.0000397600    0.0000397600
