
     Program PHONON v.6.6 starts on 23Jan2022 at  0:27:11 

     This program is part of the open-source Quantum ESPRESSO suite
     for quantum simulation of materials; please cite
         "P. Giannozzi et al., J. Phys.:Condens. Matter 21 395502 (2009);
         "P. Giannozzi et al., J. Phys.:Condens. Matter 29 465901 (2017);
          URL http://www.quantum-espresso.org", 
     in publications or presentations arising from this work. More details at
     http://www.quantum-espresso.org/quote

     Parallel version (MPI), running on    48 processors

     MPI processes distributed on     2 nodes
     K-points division:     npool     =      48
     Fft bands division:     nmany     =       1

     Reading xml data from directory:

     ./ge.save/

     IMPORTANT: XC functional enforced from input :
     Exchange-correlation= PBESOL
                           (   1   4  10   8   0   0   0)
     Any further DFT definition will be discarded
     Please, verify this is what you really want

 
     G-vector sticks info
     --------------------
     sticks:   dense  smooth     PW     G-vecs:    dense   smooth      PW
     Sum        1045    1045    313                22419    22419    3695
 
     Reading collected, re-writing distributed wavefunctions


     Dynamical matrices for ( 6, 6, 6)  uniform grid of q-points
     (  16 q-points):
       N         xq(1)         xq(2)         xq(3) 
       1   0.000000000   0.000000000   0.000000000
       2  -0.166666667   0.166666667  -0.166666667
       3  -0.333333333   0.333333333  -0.333333333
       4   0.500000000  -0.500000000   0.500000000
       5   0.000000000   0.333333333   0.000000000
       6  -0.166666667   0.500000000  -0.166666667
       7   0.666666667  -0.333333333   0.666666667
       8   0.500000000  -0.166666667   0.500000000
       9   0.333333333   0.000000000   0.333333333
      10   0.000000000   0.666666667   0.000000000
      11   0.833333333  -0.166666667   0.833333333
      12   0.666666667  -0.000000000   0.666666667
      13   0.000000000  -1.000000000   0.000000000
      14   0.666666667  -0.333333333   1.000000000
      15   0.500000000  -0.166666667   0.833333333
      16  -0.333333333  -1.000000000   0.000000000

     Saving dvscf to file. Distribute only q points, not irreducible represetations.

     Calculation of q =    0.0000000   0.0000000   0.0000000

     phonon                                                                     

     bravais-lattice index     =            2
     lattice parameter (alat)  =      10.7466  a.u.
     unit-cell volume          =     310.2790 (a.u.)^3
     number of atoms/cell      =            2
     number of atomic types    =            1
     kinetic-energy cut-off    =      66.0000  Ry
     charge density cut-off    =     264.0000  Ry
     convergence threshold     =      1.0E-22
     beta                      =       0.7000
     number of iterations used =            4
     Exchange-correlation= PBESOL
                           (   1   4  10   8   0   0   0)


     celldm(1)=   10.74659  celldm(2)=    0.00000  celldm(3)=    0.00000
     celldm(4)=    0.00000  celldm(5)=    0.00000  celldm(6)=    0.00000

     crystal axes: (cart. coord. in units of alat)
               a(1) = ( -0.5000  0.0000  0.5000 )  
               a(2) = (  0.0000  0.5000  0.5000 )  
               a(3) = ( -0.5000  0.5000  0.0000 )  

     reciprocal axes: (cart. coord. in units 2 pi/alat)
               b(1) = ( -1.0000 -1.0000  1.0000 )  
               b(2) = (  1.0000  1.0000  1.0000 )  
               b(3) = ( -1.0000  1.0000 -1.0000 )  


     Atoms inside the unit cell: 

     Cartesian axes

     site n.  atom      mass           positions (alat units)
        1     Ge 172.6000   tau(    1) = (    0.00000    0.00000    0.00000  )
        2     Ge 172.6000   tau(    2) = (   -0.25000    0.25000    0.25000  )

     Computing dynamical matrix for 
                    q = (   0.0000000   0.0000000   0.0000000 )
 
     49 Sym.Ops. (with q -> -q+G )


     G cutoff =  772.2996  (  22419 G-vectors)     FFT grid: ( 40, 40, 40)

     number of k points=   145  Gaussian smearing, width (Ry)=  0.0200

     PseudoPot. # 1 for Ge read from file:
     /scratch1/fanchem/Ge/pp/Ge.pbesol-n-kjpaw_psl.1.0.0.UPF
     MD5 check sum: 745875865497f3c829262459a163315c
     Pseudo is Projector augmented-wave + core cor, Zval =  4.0
     Generated using "atomic" code by A. Dal Corso v.6.6
     Shape of augmentation charge: PSQ
     Using radial grid of 1207 points,  4 beta functions with: 
                l(1) =   0
                l(2) =   0
                l(3) =   1
                l(4) =   1
     Q(r) pseudized with 0 coefficients 


     Mode symmetry, O_h (m-3m)  point group:


     Atomic displacements:
     There are    2 irreducible representations

     Representation     1      3 modes -  To be done

     Representation     2      3 modes -  To be done



     Alpha used in Ewald sum =   2.8000
     PHONON       :      3.10s CPU      4.08s WALL



     Representation #   1 modes #   1   2   3

     Self-consistent Calculation
 
     Pert. #  1: Fermi energy shift (Ry) =    -2.9996E-18     1.9592E-39
     Pert. #  2: Fermi energy shift (Ry) =    -3.9031E-18    -1.1020E-39
     Pert. #  3: Fermi energy shift (Ry) =    -5.0596E-19     5.3877E-39

      iter #   1 total cpu time :     5.4 secs   av.it.:   4.1
      thresh= 1.000E-02 alpha_mix =  0.700 |ddv_scf|^2 =  8.764E-09
 
     Pert. #  1: Fermi energy shift (Ry) =    -1.7167E-18     1.9132E-42
     Pert. #  2: Fermi energy shift (Ry) =    -1.1565E-18     1.1479E-41
     Pert. #  3: Fermi energy shift (Ry) =     7.2280E-19     5.7397E-41

      iter #   2 total cpu time :     7.3 secs   av.it.:   9.0
      thresh= 9.362E-06 alpha_mix =  0.700 |ddv_scf|^2 =  3.441E-10
 
     Pert. #  1: Fermi energy shift (Ry) =    -4.1561E-19    -4.7831E-43
     Pert. #  2: Fermi energy shift (Ry) =    -8.6736E-19     1.7219E-41
     Pert. #  3: Fermi energy shift (Ry) =     1.1565E-18     3.8265E-41

      iter #   3 total cpu time :     9.2 secs   av.it.:   9.2
      thresh= 1.855E-06 alpha_mix =  0.700 |ddv_scf|^2 =  2.221E-11
 
     Pert. #  1: Fermi energy shift (Ry) =    -2.0600E-18     9.0879E-42
     Pert. #  2: Fermi energy shift (Ry) =     7.9508E-18    -1.9132E-41
     Pert. #  3: Fermi energy shift (Ry) =    -5.0596E-19     5.7397E-41

      iter #   4 total cpu time :    11.1 secs   av.it.:   8.9
      thresh= 4.713E-07 alpha_mix =  0.700 |ddv_scf|^2 =  9.210E-13
 
     Pert. #  1: Fermi energy shift (Ry) =    -1.5179E-18     9.0879E-42
     Pert. #  2: Fermi energy shift (Ry) =     5.7824E-19    -1.9132E-41
     Pert. #  3: Fermi energy shift (Ry) =    -6.5052E-19     5.7397E-41

      iter #   5 total cpu time :    14.6 secs   av.it.:   8.7
      thresh= 9.597E-08 alpha_mix =  0.700 |ddv_scf|^2 =  3.921E-15
 
     Pert. #  1: Fermi energy shift (Ry) =    -1.6082E-18     1.0762E-42
     Pert. #  2: Fermi energy shift (Ry) =    -3.6140E-18    -6.8877E-41
     Pert. #  3: Fermi energy shift (Ry) =     0.0000E+00     5.8354E-41

      iter #   6 total cpu time :    16.5 secs   av.it.:   8.9
      thresh= 6.262E-09 alpha_mix =  0.700 |ddv_scf|^2 =  2.514E-17
 
     Pert. #  1: Fermi energy shift (Ry) =    -3.8489E-18     1.0762E-42
     Pert. #  2: Fermi energy shift (Ry) =    -2.3130E-18    -6.8877E-41
     Pert. #  3: Fermi energy shift (Ry) =     3.6140E-19     5.8354E-41

      iter #   7 total cpu time :    18.3 secs   av.it.:   8.3
      thresh= 5.014E-10 alpha_mix =  0.700 |ddv_scf|^2 =  2.689E-18
 
     Pert. #  1: Fermi energy shift (Ry) =    -1.4275E-18     1.0762E-42
     Pert. #  2: Fermi energy shift (Ry) =    -1.4456E-19    -6.8877E-41
     Pert. #  3: Fermi energy shift (Ry) =    -1.0119E-18     5.8354E-41

      iter #   8 total cpu time :    20.2 secs   av.it.:   8.5
      thresh= 1.640E-10 alpha_mix =  0.700 |ddv_scf|^2 =  2.779E-21
 
     Pert. #  1: Fermi energy shift (Ry) =    -2.0961E-18     1.0762E-42
     Pert. #  2: Fermi energy shift (Ry) =    -2.8912E-19    -6.8877E-41
     Pert. #  3: Fermi energy shift (Ry) =     2.8912E-18     5.8354E-41

      iter #   9 total cpu time :    21.8 secs   av.it.:   9.0
      thresh= 5.271E-12 alpha_mix =  0.700 |ddv_scf|^2 =  5.978E-23

     End of self-consistent calculation

     Convergence has been achieved 


     Representation #   2 modes #   4   5   6

     Self-consistent Calculation
 
     Pert. #  1: Fermi energy shift (Ry) =     1.0771E-25    -1.6049E-35
     Pert. #  2: Fermi energy shift (Ry) =    -1.3140E-25    -1.0031E-35
     Pert. #  3: Fermi energy shift (Ry) =     1.7233E-26    -2.0062E-36

      iter #   1 total cpu time :    23.6 secs   av.it.:   4.2
      thresh= 1.000E-02 alpha_mix =  0.700 |ddv_scf|^2 =  9.102E-09
 
     Pert. #  1: Fermi energy shift (Ry) =     0.0000E+00     1.1020E-38
     Pert. #  2: Fermi energy shift (Ry) =     2.0680E-25    -1.2000E-38
     Pert. #  3: Fermi energy shift (Ry) =     3.4466E-25    -1.9592E-39

      iter #   2 total cpu time :    25.5 secs   av.it.:   9.2
      thresh= 9.541E-06 alpha_mix =  0.700 |ddv_scf|^2 =  3.929E-10
 
     Pert. #  1: Fermi energy shift (Ry) =     8.6165E-26     1.7143E-39
     Pert. #  2: Fermi energy shift (Ry) =    -1.7233E-26    -2.1428E-39
     Pert. #  3: Fermi energy shift (Ry) =     3.1019E-25    -1.4694E-39

      iter #   3 total cpu time :    27.3 secs   av.it.:   9.3
      thresh= 1.982E-06 alpha_mix =  0.700 |ddv_scf|^2 =  1.796E-11
 
     Pert. #  1: Fermi energy shift (Ry) =     3.4466E-26     2.1428E-40
     Pert. #  2: Fermi energy shift (Ry) =     3.1019E-25     2.4489E-40
     Pert. #  3: Fermi energy shift (Ry) =    -3.4466E-25     1.5306E-40

      iter #   4 total cpu time :    29.2 secs   av.it.:   8.8
      thresh= 4.238E-07 alpha_mix =  0.700 |ddv_scf|^2 =  9.274E-13
 
     Pert. #  1: Fermi energy shift (Ry) =     8.6165E-26     1.4388E-39
     Pert. #  2: Fermi energy shift (Ry) =    -1.0340E-25     1.5306E-40
     Pert. #  3: Fermi energy shift (Ry) =    -2.7573E-25    -3.0612E-41

      iter #   5 total cpu time :    31.0 secs   av.it.:   8.5
      thresh= 9.630E-08 alpha_mix =  0.700 |ddv_scf|^2 =  1.906E-15
 
     Pert. #  1: Fermi energy shift (Ry) =     3.9636E-25     8.2652E-40
     Pert. #  2: Fermi energy shift (Ry) =     3.4466E-25     1.2321E-39
     Pert. #  3: Fermi energy shift (Ry) =     2.4126E-25     3.0612E-40

      iter #   6 total cpu time :    33.2 secs   av.it.:   9.0
      thresh= 4.365E-09 alpha_mix =  0.700 |ddv_scf|^2 =  5.482E-17
 
     Pert. #  1: Fermi energy shift (Ry) =     5.1699E-26     8.2652E-40
     Pert. #  2: Fermi energy shift (Ry) =     3.3604E-25     1.2321E-39
     Pert. #  3: Fermi energy shift (Ry) =    -3.4466E-26     3.0612E-40

      iter #   7 total cpu time :    35.8 secs   av.it.:   9.1
      thresh= 7.404E-10 alpha_mix =  0.700 |ddv_scf|^2 =  1.032E-18
 
     Pert. #  1: Fermi energy shift (Ry) =     1.3786E-25     8.2652E-40
     Pert. #  2: Fermi energy shift (Ry) =     2.4988E-25     1.2321E-39
     Pert. #  3: Fermi energy shift (Ry) =     2.0680E-25     3.0612E-40

      iter #   8 total cpu time :    37.6 secs   av.it.:   8.6
      thresh= 1.016E-10 alpha_mix =  0.700 |ddv_scf|^2 =  6.539E-20
 
     Pert. #  1: Fermi energy shift (Ry) =     8.6165E-26     8.2652E-40
     Pert. #  2: Fermi energy shift (Ry) =    -4.1359E-25     1.2321E-39
     Pert. #  3: Fermi energy shift (Ry) =     0.0000E+00     3.0612E-40

      iter #   9 total cpu time :    39.5 secs   av.it.:   8.7
      thresh= 2.557E-11 alpha_mix =  0.700 |ddv_scf|^2 =  7.482E-22
 
     Pert. #  1: Fermi energy shift (Ry) =     1.2063E-25     8.2652E-40
     Pert. #  2: Fermi energy shift (Ry) =     7.7548E-26     1.2321E-39
     Pert. #  3: Fermi energy shift (Ry) =    -2.0680E-25     3.0612E-40

      iter #  10 total cpu time :    41.5 secs   av.it.:   9.4
      thresh= 2.735E-12 alpha_mix =  0.700 |ddv_scf|^2 =  1.467E-23

     End of self-consistent calculation

     Convergence has been achieved 
 
     Number of q in the star =    1
     List of q in the star:
          1   0.000000000   0.000000000   0.000000000

     Diagonalizing the dynamical matrix

     q = (    0.000000000   0.000000000   0.000000000 ) 

 **************************************************************************
     freq (    1) =      -0.083442 [THz] =      -2.783320 [cm-1]
     freq (    2) =      -0.083442 [THz] =      -2.783320 [cm-1]
     freq (    3) =      -0.083442 [THz] =      -2.783320 [cm-1]
     freq (    4) =       5.596851 [THz] =     186.690868 [cm-1]
     freq (    5) =       5.596851 [THz] =     186.690868 [cm-1]
     freq (    6) =       5.596851 [THz] =     186.690868 [cm-1]
 **************************************************************************

     Mode symmetry, O_h (m-3m)  point group:

     freq (   1-   3) =         -2.8  [cm-1]   --> T_1u G_15  G_4- I  
     freq (   4-   6) =        186.7  [cm-1]   --> T_2g G_25' G_5+ R  

     Calculation of q =   -0.1666667   0.1666667  -0.1666667

     Subspace diagonalization in iterative solution of the eigenvalue problem:
     a serial algorithm will be used

 
     G-vector sticks info
     --------------------
     sticks:   dense  smooth     PW     G-vecs:    dense   smooth      PW
     Sum        1045    1045    313                22419    22419    3839
 

     Title: 
     phonon                                                                     


     bravais-lattice index     =            2
     lattice parameter (alat)  =      10.7466  a.u.
     unit-cell volume          =     310.2790 (a.u.)^3
     number of atoms/cell      =            2
     number of atomic types    =            1
     number of electrons       =         8.00
     number of Kohn-Sham states=            8
     kinetic-energy cutoff     =      66.0000  Ry
     charge density cutoff     =     264.0000  Ry
     Exchange-correlation= PBESOL
                           (   1   4  10   8   0   0   0)

     celldm(1)=  10.746593  celldm(2)=   0.000000  celldm(3)=   0.000000
     celldm(4)=   0.000000  celldm(5)=   0.000000  celldm(6)=   0.000000

     crystal axes: (cart. coord. in units of alat)
               a(1) = (  -0.500000   0.000000   0.500000 )  
               a(2) = (   0.000000   0.500000   0.500000 )  
               a(3) = (  -0.500000   0.500000   0.000000 )  

     reciprocal axes: (cart. coord. in units 2 pi/alat)
               b(1) = ( -1.000000 -1.000000  1.000000 )  
               b(2) = (  1.000000  1.000000  1.000000 )  
               b(3) = ( -1.000000  1.000000 -1.000000 )  


     PseudoPot. # 1 for Ge read from file:
     /scratch1/fanchem/Ge/pp/Ge.pbesol-n-kjpaw_psl.1.0.0.UPF
     MD5 check sum: 745875865497f3c829262459a163315c
     Pseudo is Projector augmented-wave + core cor, Zval =  4.0
     Generated using "atomic" code by A. Dal Corso v.6.6
     Shape of augmentation charge: PSQ
     Using radial grid of 1207 points,  4 beta functions with: 
                l(1) =   0
                l(2) =   0
                l(3) =   1
                l(4) =   1
     Q(r) pseudized with 0 coefficients 


     atomic species   valence    mass     pseudopotential
        Ge             4.00   172.60000     Ge( 1.00)

     48 Sym. Ops., with inversion, found



   Cartesian axes

     site n.     atom                  positions (alat units)
         1           Ge  tau(   1) = (   0.0000000   0.0000000   0.0000000  )
         2           Ge  tau(   2) = (  -0.2500000   0.2500000   0.2500000  )

     number of k points=  1632  Gaussian smearing, width (Ry)=  0.0200

     Number of k-points >= 100: set verbosity='high' to print them.

     Dense  grid:    22419 G-vectors     FFT dimensions: (  40,  40,  40)

     Estimated max dynamical RAM per process >      12.98 MB

     Estimated total dynamical RAM >     623.20 MB

     The potential is recalculated from file :
     ./_ph0/ge.q_2/ge.save/charge-density

     Starting wfcs are    8 atomic wfcs
     Checking if some PAW data can be deallocated... 

     Band Structure Calculation
     Davidson diagonalization with overlap

     ethr =  1.25E-10,  avg # of iterations = 15.1

     total cpu time spent up to now is        6.7 secs

     End of band structure calculation

     Number of k-points >= 100: set verbosity='high' to print the bands.

     the Fermi energy is     5.5827 ev

     Writing output data file ./_ph0/ge.q_2/ge.save/

     phonon                                                                     

     bravais-lattice index     =            2
     lattice parameter (alat)  =      10.7466  a.u.
     unit-cell volume          =     310.2790 (a.u.)^3
     number of atoms/cell      =            2
     number of atomic types    =            1
     kinetic-energy cut-off    =      66.0000  Ry
     charge density cut-off    =     264.0000  Ry
     convergence threshold     =      1.0E-22
     beta                      =       0.7000
     number of iterations used =            4
     Exchange-correlation= PBESOL
                           (   1   4  10   8   0   0   0)


     celldm(1)=   10.74659  celldm(2)=    0.00000  celldm(3)=    0.00000
     celldm(4)=    0.00000  celldm(5)=    0.00000  celldm(6)=    0.00000

     crystal axes: (cart. coord. in units of alat)
               a(1) = ( -0.5000  0.0000  0.5000 )  
               a(2) = (  0.0000  0.5000  0.5000 )  
               a(3) = ( -0.5000  0.5000  0.0000 )  

     reciprocal axes: (cart. coord. in units 2 pi/alat)
               b(1) = ( -1.0000 -1.0000  1.0000 )  
               b(2) = (  1.0000  1.0000  1.0000 )  
               b(3) = ( -1.0000  1.0000 -1.0000 )  


     Atoms inside the unit cell: 

     Cartesian axes

     site n.  atom      mass           positions (alat units)
        1     Ge 172.6000   tau(    1) = (    0.00000    0.00000    0.00000  )
        2     Ge 172.6000   tau(    2) = (   -0.25000    0.25000    0.25000  )

     Computing dynamical matrix for 
                    q = (  -0.1666667   0.1666667  -0.1666667 )
 
      6 Sym.Ops. (no q -> -q+G )


     G cutoff =  772.2996  (  22419 G-vectors)     FFT grid: ( 40, 40, 40)

     number of k points=  1632  Gaussian smearing, width (Ry)=  0.0200

     PseudoPot. # 1 for Ge read from file:
     /scratch1/fanchem/Ge/pp/Ge.pbesol-n-kjpaw_psl.1.0.0.UPF
     MD5 check sum: 745875865497f3c829262459a163315c
     Pseudo is Projector augmented-wave + core cor, Zval =  4.0
     Generated using "atomic" code by A. Dal Corso v.6.6
     Shape of augmentation charge: PSQ
     Using radial grid of 1207 points,  4 beta functions with: 
                l(1) =   0
                l(2) =   0
                l(3) =   1
                l(4) =   1
     Q(r) pseudized with 0 coefficients 


     Mode symmetry, C_3v (3m)   point group:


     Atomic displacements:
     There are    4 irreducible representations

     Representation     1      1 modes -  To be done

     Representation     2      1 modes -  To be done

     Representation     3      2 modes -  To be done

     Representation     4      2 modes -  To be done



     Alpha used in Ewald sum =   2.8000
     PHONON       :     43.08s CPU     51.61s WALL



     Representation #   1 mode #   1

     Self-consistent Calculation

      iter #   1 total cpu time :    53.0 secs   av.it.:   5.0
      thresh= 1.000E-02 alpha_mix =  0.700 |ddv_scf|^2 =  1.805E-03

      iter #   2 total cpu time :    54.6 secs   av.it.:   7.0
      thresh= 4.248E-03 alpha_mix =  0.700 |ddv_scf|^2 =  9.130E-02

      iter #   3 total cpu time :    56.2 secs   av.it.:   6.2
      thresh= 1.000E-02 alpha_mix =  0.700 |ddv_scf|^2 =  2.082E-07

      iter #   4 total cpu time :    58.2 secs   av.it.:   7.5
      thresh= 4.563E-05 alpha_mix =  0.700 |ddv_scf|^2 =  4.137E-09

      iter #   5 total cpu time :    59.9 secs   av.it.:   8.1
      thresh= 6.432E-06 alpha_mix =  0.700 |ddv_scf|^2 =  2.635E-09

      iter #   6 total cpu time :    61.4 secs   av.it.:   6.6
      thresh= 5.134E-06 alpha_mix =  0.700 |ddv_scf|^2 =  8.050E-09

      iter #   7 total cpu time :    62.9 secs   av.it.:   5.9
      thresh= 8.972E-06 alpha_mix =  0.700 |ddv_scf|^2 =  5.910E-11

      iter #   8 total cpu time :    64.5 secs   av.it.:   7.0
      thresh= 7.688E-07 alpha_mix =  0.700 |ddv_scf|^2 =  1.024E-11

      iter #   9 total cpu time :    66.0 secs   av.it.:   6.5
      thresh= 3.201E-07 alpha_mix =  0.700 |ddv_scf|^2 =  2.851E-14

      iter #  10 total cpu time :    67.6 secs   av.it.:   7.7
      thresh= 1.688E-08 alpha_mix =  0.700 |ddv_scf|^2 =  1.901E-14

      iter #  11 total cpu time :    69.2 secs   av.it.:   7.1
      thresh= 1.379E-08 alpha_mix =  0.700 |ddv_scf|^2 =  1.763E-15

      iter #  12 total cpu time :    70.7 secs   av.it.:   7.3
      thresh= 4.199E-09 alpha_mix =  0.700 |ddv_scf|^2 =  7.612E-18

      iter #  13 total cpu time :    72.4 secs   av.it.:   7.4
      thresh= 2.759E-10 alpha_mix =  0.700 |ddv_scf|^2 =  6.090E-19

      iter #  14 total cpu time :    76.5 secs   av.it.:   7.6
      thresh= 7.804E-11 alpha_mix =  0.700 |ddv_scf|^2 =  4.220E-19

      iter #  15 total cpu time :    78.1 secs   av.it.:   6.7
      thresh= 6.496E-11 alpha_mix =  0.700 |ddv_scf|^2 =  1.107E-18

      iter #  16 total cpu time :    79.6 secs   av.it.:   6.3
      thresh= 1.052E-10 alpha_mix =  0.700 |ddv_scf|^2 =  3.861E-22

      iter #  17 total cpu time :    81.2 secs   av.it.:   7.9
      thresh= 1.965E-12 alpha_mix =  0.700 |ddv_scf|^2 =  2.100E-22

      iter #  18 total cpu time :    82.7 secs   av.it.:   6.6
      thresh= 1.449E-12 alpha_mix =  0.700 |ddv_scf|^2 =  1.141E-22

      iter #  19 total cpu time :    84.8 secs   av.it.:   6.3
      thresh= 1.068E-12 alpha_mix =  0.700 |ddv_scf|^2 =  5.405E-25

     End of self-consistent calculation

     Convergence has been achieved 


     Representation #   2 mode #   2

     Self-consistent Calculation

      iter #   1 total cpu time :    86.4 secs   av.it.:   5.0
      thresh= 1.000E-02 alpha_mix =  0.700 |ddv_scf|^2 =  1.805E-03

      iter #   2 total cpu time :    88.0 secs   av.it.:   7.0
      thresh= 4.248E-03 alpha_mix =  0.700 |ddv_scf|^2 =  9.130E-02

      iter #   3 total cpu time :    89.4 secs   av.it.:   6.2
      thresh= 1.000E-02 alpha_mix =  0.700 |ddv_scf|^2 =  2.081E-07

      iter #   4 total cpu time :    91.1 secs   av.it.:   7.5
      thresh= 4.562E-05 alpha_mix =  0.700 |ddv_scf|^2 =  4.196E-09

      iter #   5 total cpu time :    92.8 secs   av.it.:   8.1
      thresh= 6.478E-06 alpha_mix =  0.700 |ddv_scf|^2 =  2.314E-09

      iter #   6 total cpu time :    94.3 secs   av.it.:   6.9
      thresh= 4.810E-06 alpha_mix =  0.700 |ddv_scf|^2 =  2.887E-09

      iter #   7 total cpu time :    95.8 secs   av.it.:   5.7
      thresh= 5.373E-06 alpha_mix =  0.700 |ddv_scf|^2 =  8.717E-11

      iter #   8 total cpu time :    97.3 secs   av.it.:   6.8
      thresh= 9.336E-07 alpha_mix =  0.700 |ddv_scf|^2 =  1.020E-11

      iter #   9 total cpu time :    98.8 secs   av.it.:   6.5
      thresh= 3.194E-07 alpha_mix =  0.700 |ddv_scf|^2 =  3.024E-14

      iter #  10 total cpu time :   100.5 secs   av.it.:   7.7
      thresh= 1.739E-08 alpha_mix =  0.700 |ddv_scf|^2 =  1.907E-14

      iter #  11 total cpu time :   102.1 secs   av.it.:   7.1
      thresh= 1.381E-08 alpha_mix =  0.700 |ddv_scf|^2 =  1.763E-15

      iter #  12 total cpu time :   103.6 secs   av.it.:   7.2
      thresh= 4.199E-09 alpha_mix =  0.700 |ddv_scf|^2 =  8.624E-18

      iter #  13 total cpu time :   105.2 secs   av.it.:   7.5
      thresh= 2.937E-10 alpha_mix =  0.700 |ddv_scf|^2 =  5.416E-19

      iter #  14 total cpu time :   106.9 secs   av.it.:   7.8
      thresh= 7.359E-11 alpha_mix =  0.700 |ddv_scf|^2 =  4.619E-18

      iter #  15 total cpu time :   108.9 secs   av.it.:   5.5
      thresh= 2.149E-10 alpha_mix =  0.700 |ddv_scf|^2 =  2.238E-19

      iter #  16 total cpu time :   110.4 secs   av.it.:   6.7
      thresh= 4.731E-11 alpha_mix =  0.700 |ddv_scf|^2 =  6.868E-22

      iter #  17 total cpu time :   112.1 secs   av.it.:   7.9
      thresh= 2.621E-12 alpha_mix =  0.700 |ddv_scf|^2 =  9.590E-22

      iter #  18 total cpu time :   113.9 secs   av.it.:   6.7
      thresh= 3.097E-12 alpha_mix =  0.700 |ddv_scf|^2 =  1.924E-21

      iter #  19 total cpu time :   115.3 secs   av.it.:   5.9
      thresh= 4.387E-12 alpha_mix =  0.700 |ddv_scf|^2 =  1.004E-23

     End of self-consistent calculation

     Convergence has been achieved 


     Representation #   3 modes #   3   4

     Self-consistent Calculation

      iter #   1 total cpu time :   120.2 secs   av.it.:   4.3
      thresh= 1.000E-02 alpha_mix =  0.700 |ddv_scf|^2 =  2.376E-08

      iter #   2 total cpu time :   123.6 secs   av.it.:   9.0
      thresh= 1.541E-05 alpha_mix =  0.700 |ddv_scf|^2 =  9.786E-10

      iter #   3 total cpu time :   127.1 secs   av.it.:   9.2
      thresh= 3.128E-06 alpha_mix =  0.700 |ddv_scf|^2 =  7.789E-11

      iter #   4 total cpu time :   130.5 secs   av.it.:   8.9
      thresh= 8.826E-07 alpha_mix =  0.700 |ddv_scf|^2 =  2.872E-12

      iter #   5 total cpu time :   134.2 secs   av.it.:   8.6
      thresh= 1.695E-07 alpha_mix =  0.700 |ddv_scf|^2 =  1.065E-14

      iter #   6 total cpu time :   137.6 secs   av.it.:   8.8
      thresh= 1.032E-08 alpha_mix =  0.700 |ddv_scf|^2 =  5.132E-16

      iter #   7 total cpu time :   141.1 secs   av.it.:   8.7
      thresh= 2.265E-09 alpha_mix =  0.700 |ddv_scf|^2 =  1.891E-17

      iter #   8 total cpu time :   144.5 secs   av.it.:   8.7
      thresh= 4.348E-10 alpha_mix =  0.700 |ddv_scf|^2 =  7.580E-19

      iter #   9 total cpu time :   148.0 secs   av.it.:   8.6
      thresh= 8.706E-11 alpha_mix =  0.700 |ddv_scf|^2 =  7.199E-21

      iter #  10 total cpu time :   151.9 secs   av.it.:   9.1
      thresh= 8.485E-12 alpha_mix =  0.700 |ddv_scf|^2 =  3.870E-22

      iter #  11 total cpu time :   155.2 secs   av.it.:   8.8
      thresh= 1.967E-12 alpha_mix =  0.700 |ddv_scf|^2 =  1.825E-23

     End of self-consistent calculation

     Convergence has been achieved 


     Representation #   4 modes #   5   6

     Self-consistent Calculation

      iter #   1 total cpu time :   157.8 secs   av.it.:   4.3
      thresh= 1.000E-02 alpha_mix =  0.700 |ddv_scf|^2 =  2.376E-08

      iter #   2 total cpu time :   161.4 secs   av.it.:   9.1
      thresh= 1.541E-05 alpha_mix =  0.700 |ddv_scf|^2 =  9.783E-10

      iter #   3 total cpu time :   164.8 secs   av.it.:   9.2
      thresh= 3.128E-06 alpha_mix =  0.700 |ddv_scf|^2 =  7.787E-11

      iter #   4 total cpu time :   170.5 secs   av.it.:   8.9
      thresh= 8.825E-07 alpha_mix =  0.700 |ddv_scf|^2 =  2.871E-12

      iter #   5 total cpu time :   174.8 secs   av.it.:   8.6
      thresh= 1.695E-07 alpha_mix =  0.700 |ddv_scf|^2 =  1.066E-14

      iter #   6 total cpu time :   178.3 secs   av.it.:   8.8
      thresh= 1.033E-08 alpha_mix =  0.700 |ddv_scf|^2 =  5.131E-16

      iter #   7 total cpu time :   181.7 secs   av.it.:   8.7
      thresh= 2.265E-09 alpha_mix =  0.700 |ddv_scf|^2 =  1.892E-17

      iter #   8 total cpu time :   185.3 secs   av.it.:   8.7
      thresh= 4.349E-10 alpha_mix =  0.700 |ddv_scf|^2 =  7.583E-19

      iter #   9 total cpu time :   188.6 secs   av.it.:   8.6
      thresh= 8.708E-11 alpha_mix =  0.700 |ddv_scf|^2 =  7.247E-21

      iter #  10 total cpu time :   192.2 secs   av.it.:   9.1
      thresh= 8.513E-12 alpha_mix =  0.700 |ddv_scf|^2 =  3.894E-22

      iter #  11 total cpu time :   195.5 secs   av.it.:   8.8
      thresh= 1.973E-12 alpha_mix =  0.700 |ddv_scf|^2 =  1.834E-23

     End of self-consistent calculation

     Convergence has been achieved 
 
     Number of q in the star =    8
     List of q in the star:
          1  -0.166666667   0.166666667  -0.166666667
          2   0.166666667   0.166666667   0.166666667
          3  -0.166666667  -0.166666667  -0.166666667
          4   0.166666667  -0.166666667   0.166666667
          5   0.166666667  -0.166666667  -0.166666667
          6   0.166666667   0.166666667  -0.166666667
          7  -0.166666667  -0.166666667   0.166666667
          8  -0.166666667   0.166666667   0.166666667

     Diagonalizing the dynamical matrix

     q = (   -0.166666667   0.166666667  -0.166666667 ) 

 **************************************************************************
     freq (    1) =       0.771591 [THz] =      25.737491 [cm-1]
     freq (    2) =       0.771591 [THz] =      25.737491 [cm-1]
     freq (    3) =       1.706035 [THz] =      56.907202 [cm-1]
     freq (    4) =       5.498580 [THz] =     183.412887 [cm-1]
     freq (    5) =       5.509330 [THz] =     183.771466 [cm-1]
     freq (    6) =       5.509330 [THz] =     183.771466 [cm-1]
 **************************************************************************

     Mode symmetry, C_3v (3m)   point group:

     freq (   1-   2) =         25.7  [cm-1]   --> E    L_3           
     freq (   3-   3) =         56.9  [cm-1]   --> A_1  L_1           
     freq (   4-   4) =        183.4  [cm-1]   --> A_1  L_1           
     freq (   5-   6) =        183.8  [cm-1]   --> E    L_3           

     Calculation of q =   -0.3333333   0.3333333  -0.3333333
 
     G-vector sticks info
     --------------------
     sticks:   dense  smooth     PW     G-vecs:    dense   smooth      PW
     Sum        1045    1045    349                22419    22419    4111
 

     Title: 
     phonon                                                                     


     bravais-lattice index     =            2
     lattice parameter (alat)  =      10.7466  a.u.
     unit-cell volume          =     310.2790 (a.u.)^3
     number of atoms/cell      =            2
     number of atomic types    =            1
     number of electrons       =         8.00
     number of Kohn-Sham states=            8
     kinetic-energy cutoff     =      66.0000  Ry
     charge density cutoff     =     264.0000  Ry
     Exchange-correlation= PBESOL
                           (   1   4  10   8   0   0   0)

     celldm(1)=  10.746593  celldm(2)=   0.000000  celldm(3)=   0.000000
     celldm(4)=   0.000000  celldm(5)=   0.000000  celldm(6)=   0.000000

     crystal axes: (cart. coord. in units of alat)
               a(1) = (  -0.500000   0.000000   0.500000 )  
               a(2) = (   0.000000   0.500000   0.500000 )  
               a(3) = (  -0.500000   0.500000   0.000000 )  

     reciprocal axes: (cart. coord. in units 2 pi/alat)
               b(1) = ( -1.000000 -1.000000  1.000000 )  
               b(2) = (  1.000000  1.000000  1.000000 )  
               b(3) = ( -1.000000  1.000000 -1.000000 )  


     PseudoPot. # 1 for Ge read from file:
     /scratch1/fanchem/Ge/pp/Ge.pbesol-n-kjpaw_psl.1.0.0.UPF
     MD5 check sum: 745875865497f3c829262459a163315c
     Pseudo is Projector augmented-wave + core cor, Zval =  4.0
     Generated using "atomic" code by A. Dal Corso v.6.6
     Shape of augmentation charge: PSQ
     Using radial grid of 1207 points,  4 beta functions with: 
                l(1) =   0
                l(2) =   0
                l(3) =   1
                l(4) =   1
     Q(r) pseudized with 0 coefficients 


     atomic species   valence    mass     pseudopotential
        Ge             4.00   172.60000     Ge( 1.00)

     48 Sym. Ops., with inversion, found



   Cartesian axes

     site n.     atom                  positions (alat units)
         1           Ge  tau(   1) = (   0.0000000   0.0000000   0.0000000  )
         2           Ge  tau(   2) = (  -0.2500000   0.2500000   0.2500000  )

     number of k points=  1632  Gaussian smearing, width (Ry)=  0.0200

     Number of k-points >= 100: set verbosity='high' to print them.

     Dense  grid:    22419 G-vectors     FFT dimensions: (  40,  40,  40)

     Estimated max dynamical RAM per process >      12.99 MB

     Estimated total dynamical RAM >     623.39 MB

     The potential is recalculated from file :
     ./_ph0/ge.q_3/ge.save/charge-density

     Starting wfcs are    8 atomic wfcs
     Checking if some PAW data can be deallocated... 

     Band Structure Calculation
     Davidson diagonalization with overlap

     ethr =  1.25E-10,  avg # of iterations = 15.1

     total cpu time spent up to now is       13.8 secs

     End of band structure calculation

     Number of k-points >= 100: set verbosity='high' to print the bands.

     the Fermi energy is     5.5827 ev

     Writing output data file ./_ph0/ge.q_3/ge.save/

     phonon                                                                     

     bravais-lattice index     =            2
     lattice parameter (alat)  =      10.7466  a.u.
     unit-cell volume          =     310.2790 (a.u.)^3
     number of atoms/cell      =            2
     number of atomic types    =            1
     kinetic-energy cut-off    =      66.0000  Ry
     charge density cut-off    =     264.0000  Ry
     convergence threshold     =      1.0E-22
     beta                      =       0.7000
     number of iterations used =            4
     Exchange-correlation= PBESOL
                           (   1   4  10   8   0   0   0)


     celldm(1)=   10.74659  celldm(2)=    0.00000  celldm(3)=    0.00000
     celldm(4)=    0.00000  celldm(5)=    0.00000  celldm(6)=    0.00000

     crystal axes: (cart. coord. in units of alat)
               a(1) = ( -0.5000  0.0000  0.5000 )  
               a(2) = (  0.0000  0.5000  0.5000 )  
               a(3) = ( -0.5000  0.5000  0.0000 )  

     reciprocal axes: (cart. coord. in units 2 pi/alat)
               b(1) = ( -1.0000 -1.0000  1.0000 )  
               b(2) = (  1.0000  1.0000  1.0000 )  
               b(3) = ( -1.0000  1.0000 -1.0000 )  


     Atoms inside the unit cell: 

     Cartesian axes

     site n.  atom      mass           positions (alat units)
        1     Ge 172.6000   tau(    1) = (    0.00000    0.00000    0.00000  )
        2     Ge 172.6000   tau(    2) = (   -0.25000    0.25000    0.25000  )

     Computing dynamical matrix for 
                    q = (  -0.3333333   0.3333333  -0.3333333 )
 
      6 Sym.Ops. (no q -> -q+G )


     G cutoff =  772.2996  (  22419 G-vectors)     FFT grid: ( 40, 40, 40)

     number of k points=  1632  Gaussian smearing, width (Ry)=  0.0200

     PseudoPot. # 1 for Ge read from file:
     /scratch1/fanchem/Ge/pp/Ge.pbesol-n-kjpaw_psl.1.0.0.UPF
     MD5 check sum: 745875865497f3c829262459a163315c
     Pseudo is Projector augmented-wave + core cor, Zval =  4.0
     Generated using "atomic" code by A. Dal Corso v.6.6
     Shape of augmentation charge: PSQ
     Using radial grid of 1207 points,  4 beta functions with: 
                l(1) =   0
                l(2) =   0
                l(3) =   1
                l(4) =   1
     Q(r) pseudized with 0 coefficients 


     Mode symmetry, C_3v (3m)   point group:


     Atomic displacements:
     There are    4 irreducible representations

     Representation     1      1 modes -  To be done

     Representation     2      1 modes -  To be done

     Representation     3      2 modes -  To be done

     Representation     4      2 modes -  To be done



     Alpha used in Ewald sum =   2.8000
     PHONON       :   2m57.75s CPU   3m25.83s WALL



     Representation #   1 mode #   1

     Self-consistent Calculation

      iter #   1 total cpu time :   207.1 secs   av.it.:   5.0
      thresh= 1.000E-02 alpha_mix =  0.700 |ddv_scf|^2 =  7.721E-05

      iter #   2 total cpu time :   208.7 secs   av.it.:   7.7
      thresh= 8.787E-04 alpha_mix =  0.700 |ddv_scf|^2 =  6.377E-04

      iter #   3 total cpu time :   210.4 secs   av.it.:   6.5
      thresh= 2.525E-03 alpha_mix =  0.700 |ddv_scf|^2 =  9.873E-08

      iter #   4 total cpu time :   212.1 secs   av.it.:   8.0
      thresh= 3.142E-05 alpha_mix =  0.700 |ddv_scf|^2 =  5.260E-09

      iter #   5 total cpu time :   213.7 secs   av.it.:   7.8
      thresh= 7.252E-06 alpha_mix =  0.700 |ddv_scf|^2 =  7.620E-11

      iter #   6 total cpu time :   215.4 secs   av.it.:   8.3
      thresh= 8.729E-07 alpha_mix =  0.700 |ddv_scf|^2 =  1.184E-11

      iter #   7 total cpu time :   217.1 secs   av.it.:   8.0
      thresh= 3.441E-07 alpha_mix =  0.700 |ddv_scf|^2 =  1.626E-11

      iter #   8 total cpu time :   218.7 secs   av.it.:   7.2
      thresh= 4.032E-07 alpha_mix =  0.700 |ddv_scf|^2 =  4.224E-12

      iter #   9 total cpu time :   220.3 secs   av.it.:   7.3
      thresh= 2.055E-07 alpha_mix =  0.700 |ddv_scf|^2 =  1.963E-12

      iter #  10 total cpu time :   221.9 secs   av.it.:   6.7
      thresh= 1.401E-07 alpha_mix =  0.700 |ddv_scf|^2 =  3.870E-15

      iter #  11 total cpu time :   223.6 secs   av.it.:   8.1
      thresh= 6.221E-09 alpha_mix =  0.700 |ddv_scf|^2 =  6.479E-16

      iter #  12 total cpu time :   225.2 secs   av.it.:   7.9
      thresh= 2.545E-09 alpha_mix =  0.700 |ddv_scf|^2 =  2.122E-16

      iter #  13 total cpu time :   226.9 secs   av.it.:   7.7
      thresh= 1.457E-09 alpha_mix =  0.700 |ddv_scf|^2 =  1.965E-17

      iter #  14 total cpu time :   229.2 secs   av.it.:   7.6
      thresh= 4.433E-10 alpha_mix =  0.700 |ddv_scf|^2 =  1.363E-17

      iter #  15 total cpu time :   230.8 secs   av.it.:   7.2
      thresh= 3.692E-10 alpha_mix =  0.700 |ddv_scf|^2 =  1.574E-18

      iter #  16 total cpu time :   232.4 secs   av.it.:   7.4
      thresh= 1.255E-10 alpha_mix =  0.700 |ddv_scf|^2 =  8.546E-20

      iter #  17 total cpu time :   234.0 secs   av.it.:   7.5
      thresh= 2.923E-11 alpha_mix =  0.700 |ddv_scf|^2 =  9.159E-21

      iter #  18 total cpu time :   236.2 secs   av.it.:   7.9
      thresh= 9.570E-12 alpha_mix =  0.700 |ddv_scf|^2 =  2.417E-21

      iter #  19 total cpu time :   237.9 secs   av.it.:   7.7
      thresh= 4.916E-12 alpha_mix =  0.700 |ddv_scf|^2 =  1.626E-21

      iter #  20 total cpu time :   239.4 secs   av.it.:   7.1
      thresh= 4.032E-12 alpha_mix =  0.700 |ddv_scf|^2 =  8.129E-23

     End of self-consistent calculation

     Convergence has been achieved 


     Representation #   2 mode #   2

     Self-consistent Calculation

      iter #   1 total cpu time :   240.9 secs   av.it.:   5.0
      thresh= 1.000E-02 alpha_mix =  0.700 |ddv_scf|^2 =  7.721E-05

      iter #   2 total cpu time :   242.5 secs   av.it.:   7.7
      thresh= 8.787E-04 alpha_mix =  0.700 |ddv_scf|^2 =  6.378E-04

      iter #   3 total cpu time :   243.9 secs   av.it.:   6.5
      thresh= 2.525E-03 alpha_mix =  0.700 |ddv_scf|^2 =  9.873E-08

      iter #   4 total cpu time :   245.6 secs   av.it.:   8.0
      thresh= 3.142E-05 alpha_mix =  0.700 |ddv_scf|^2 =  5.260E-09

      iter #   5 total cpu time :   247.2 secs   av.it.:   7.8
      thresh= 7.253E-06 alpha_mix =  0.700 |ddv_scf|^2 =  7.626E-11

      iter #   6 total cpu time :   249.0 secs   av.it.:   8.3
      thresh= 8.733E-07 alpha_mix =  0.700 |ddv_scf|^2 =  1.227E-11

      iter #   7 total cpu time :   250.6 secs   av.it.:   7.9
      thresh= 3.503E-07 alpha_mix =  0.700 |ddv_scf|^2 =  1.747E-11

      iter #   8 total cpu time :   252.2 secs   av.it.:   7.1
      thresh= 4.179E-07 alpha_mix =  0.700 |ddv_scf|^2 =  4.160E-12

      iter #   9 total cpu time :   253.8 secs   av.it.:   7.3
      thresh= 2.040E-07 alpha_mix =  0.700 |ddv_scf|^2 =  2.007E-12

      iter #  10 total cpu time :   255.3 secs   av.it.:   6.7
      thresh= 1.417E-07 alpha_mix =  0.700 |ddv_scf|^2 =  3.781E-15

      iter #  11 total cpu time :   257.0 secs   av.it.:   8.1
      thresh= 6.149E-09 alpha_mix =  0.700 |ddv_scf|^2 =  6.822E-16

      iter #  12 total cpu time :   258.7 secs   av.it.:   7.9
      thresh= 2.612E-09 alpha_mix =  0.700 |ddv_scf|^2 =  2.294E-16

      iter #  13 total cpu time :   260.7 secs   av.it.:   7.7
      thresh= 1.515E-09 alpha_mix =  0.700 |ddv_scf|^2 =  1.887E-17

      iter #  14 total cpu time :   262.3 secs   av.it.:   7.6
      thresh= 4.343E-10 alpha_mix =  0.700 |ddv_scf|^2 =  1.378E-17

      iter #  15 total cpu time :   263.8 secs   av.it.:   7.1
      thresh= 3.712E-10 alpha_mix =  0.700 |ddv_scf|^2 =  1.509E-18

      iter #  16 total cpu time :   265.9 secs   av.it.:   7.4
      thresh= 1.228E-10 alpha_mix =  0.700 |ddv_scf|^2 =  7.665E-20

      iter #  17 total cpu time :   267.6 secs   av.it.:   7.6
      thresh= 2.769E-11 alpha_mix =  0.700 |ddv_scf|^2 =  7.582E-21

      iter #  18 total cpu time :   269.3 secs   av.it.:   7.9
      thresh= 8.707E-12 alpha_mix =  0.700 |ddv_scf|^2 =  2.286E-21

      iter #  19 total cpu time :   270.9 secs   av.it.:   7.6
      thresh= 4.781E-12 alpha_mix =  0.700 |ddv_scf|^2 =  1.534E-21

      iter #  20 total cpu time :   272.4 secs   av.it.:   7.1
      thresh= 3.916E-12 alpha_mix =  0.700 |ddv_scf|^2 =  8.314E-23

     End of self-consistent calculation

     Convergence has been achieved 


     Representation #   3 modes #   3   4

     Self-consistent Calculation

      iter #   1 total cpu time :   274.9 secs   av.it.:   4.3
      thresh= 1.000E-02 alpha_mix =  0.700 |ddv_scf|^2 =  3.033E-08

      iter #   2 total cpu time :   278.3 secs   av.it.:   9.1
      thresh= 1.742E-05 alpha_mix =  0.700 |ddv_scf|^2 =  1.326E-09

      iter #   3 total cpu time :   281.7 secs   av.it.:   9.1
      thresh= 3.642E-06 alpha_mix =  0.700 |ddv_scf|^2 =  1.188E-10

      iter #   4 total cpu time :   287.7 secs   av.it.:   8.9
      thresh= 1.090E-06 alpha_mix =  0.700 |ddv_scf|^2 =  3.313E-12

      iter #   5 total cpu time :   291.7 secs   av.it.:   8.6
      thresh= 1.820E-07 alpha_mix =  0.700 |ddv_scf|^2 =  1.326E-14

      iter #   6 total cpu time :   295.7 secs   av.it.:   8.7
      thresh= 1.152E-08 alpha_mix =  0.700 |ddv_scf|^2 =  2.973E-16

      iter #   7 total cpu time :   300.1 secs   av.it.:   8.7
      thresh= 1.724E-09 alpha_mix =  0.700 |ddv_scf|^2 =  1.395E-17

      iter #   8 total cpu time :   307.9 secs   av.it.:   8.6
      thresh= 3.736E-10 alpha_mix =  0.700 |ddv_scf|^2 =  5.660E-19

      iter #   9 total cpu time :   311.4 secs   av.it.:   8.7
      thresh= 7.523E-11 alpha_mix =  0.700 |ddv_scf|^2 =  6.729E-21

      iter #  10 total cpu time :   314.9 secs   av.it.:   9.0
      thresh= 8.203E-12 alpha_mix =  0.700 |ddv_scf|^2 =  2.636E-22

      iter #  11 total cpu time :   320.4 secs   av.it.:   9.0
      thresh= 1.624E-12 alpha_mix =  0.700 |ddv_scf|^2 =  1.543E-23

     End of self-consistent calculation

     Convergence has been achieved 


     Representation #   4 modes #   5   6

     Self-consistent Calculation

      iter #   1 total cpu time :   323.0 secs   av.it.:   4.3
      thresh= 1.000E-02 alpha_mix =  0.700 |ddv_scf|^2 =  3.034E-08

      iter #   2 total cpu time :   326.5 secs   av.it.:   9.1
      thresh= 1.742E-05 alpha_mix =  0.700 |ddv_scf|^2 =  1.327E-09

      iter #   3 total cpu time :   330.0 secs   av.it.:   9.1
      thresh= 3.643E-06 alpha_mix =  0.700 |ddv_scf|^2 =  1.189E-10

      iter #   4 total cpu time :   333.4 secs   av.it.:   9.0
      thresh= 1.090E-06 alpha_mix =  0.700 |ddv_scf|^2 =  3.314E-12

      iter #   5 total cpu time :   337.3 secs   av.it.:   8.6
      thresh= 1.820E-07 alpha_mix =  0.700 |ddv_scf|^2 =  1.325E-14

      iter #   6 total cpu time :   341.2 secs   av.it.:   8.7
      thresh= 1.151E-08 alpha_mix =  0.700 |ddv_scf|^2 =  2.972E-16

      iter #   7 total cpu time :   344.6 secs   av.it.:   8.7
      thresh= 1.724E-09 alpha_mix =  0.700 |ddv_scf|^2 =  1.393E-17

      iter #   8 total cpu time :   348.0 secs   av.it.:   8.6
      thresh= 3.732E-10 alpha_mix =  0.700 |ddv_scf|^2 =  5.644E-19

      iter #   9 total cpu time :   351.6 secs   av.it.:   8.7
      thresh= 7.513E-11 alpha_mix =  0.700 |ddv_scf|^2 =  6.684E-21

      iter #  10 total cpu time :   355.1 secs   av.it.:   9.0
      thresh= 8.176E-12 alpha_mix =  0.700 |ddv_scf|^2 =  2.596E-22

      iter #  11 total cpu time :   358.4 secs   av.it.:   9.0
      thresh= 1.611E-12 alpha_mix =  0.700 |ddv_scf|^2 =  1.535E-23

     End of self-consistent calculation

     Convergence has been achieved 
 
     Number of q in the star =    8
     List of q in the star:
          1  -0.333333333   0.333333333  -0.333333333
          2   0.333333333   0.333333333   0.333333333
          3  -0.333333333  -0.333333333  -0.333333333
          4   0.333333333  -0.333333333   0.333333333
          5   0.333333333  -0.333333333  -0.333333333
          6   0.333333333   0.333333333  -0.333333333
          7  -0.333333333  -0.333333333   0.333333333
          8  -0.333333333   0.333333333   0.333333333

     Diagonalizing the dynamical matrix

     q = (   -0.333333333   0.333333333  -0.333333333 ) 

 **************************************************************************
     freq (    1) =       1.068799 [THz] =      35.651305 [cm-1]
     freq (    2) =       1.068799 [THz] =      35.651305 [cm-1]
     freq (    3) =       3.203000 [THz] =     106.840574 [cm-1]
     freq (    4) =       5.092581 [THz] =     169.870206 [cm-1]
     freq (    5) =       5.415776 [THz] =     180.650848 [cm-1]
     freq (    6) =       5.415776 [THz] =     180.650848 [cm-1]
 **************************************************************************

     Mode symmetry, C_3v (3m)   point group:

     freq (   1-   2) =         35.7  [cm-1]   --> E    L_3           
     freq (   3-   3) =        106.8  [cm-1]   --> A_1  L_1           
     freq (   4-   4) =        169.9  [cm-1]   --> A_1  L_1           
     freq (   5-   6) =        180.7  [cm-1]   --> E    L_3           

     Calculation of q =    0.5000000  -0.5000000   0.5000000
 
     G-vector sticks info
     --------------------
     sticks:   dense  smooth     PW     G-vecs:    dense   smooth      PW
     Sum        1045    1045    349                22419    22419    4285
 

     Title: 
     phonon                                                                     


     bravais-lattice index     =            2
     lattice parameter (alat)  =      10.7466  a.u.
     unit-cell volume          =     310.2790 (a.u.)^3
     number of atoms/cell      =            2
     number of atomic types    =            1
     number of electrons       =         8.00
     number of Kohn-Sham states=            8
     kinetic-energy cutoff     =      66.0000  Ry
     charge density cutoff     =     264.0000  Ry
     Exchange-correlation= PBESOL
                           (   1   4  10   8   0   0   0)

     celldm(1)=  10.746593  celldm(2)=   0.000000  celldm(3)=   0.000000
     celldm(4)=   0.000000  celldm(5)=   0.000000  celldm(6)=   0.000000

     crystal axes: (cart. coord. in units of alat)
               a(1) = (  -0.500000   0.000000   0.500000 )  
               a(2) = (   0.000000   0.500000   0.500000 )  
               a(3) = (  -0.500000   0.500000   0.000000 )  

     reciprocal axes: (cart. coord. in units 2 pi/alat)
               b(1) = ( -1.000000 -1.000000  1.000000 )  
               b(2) = (  1.000000  1.000000  1.000000 )  
               b(3) = ( -1.000000  1.000000 -1.000000 )  


     PseudoPot. # 1 for Ge read from file:
     /scratch1/fanchem/Ge/pp/Ge.pbesol-n-kjpaw_psl.1.0.0.UPF
     MD5 check sum: 745875865497f3c829262459a163315c
     Pseudo is Projector augmented-wave + core cor, Zval =  4.0
     Generated using "atomic" code by A. Dal Corso v.6.6
     Shape of augmentation charge: PSQ
     Using radial grid of 1207 points,  4 beta functions with: 
                l(1) =   0
                l(2) =   0
                l(3) =   1
                l(4) =   1
     Q(r) pseudized with 0 coefficients 


     atomic species   valence    mass     pseudopotential
        Ge             4.00   172.60000     Ge( 1.00)

     48 Sym. Ops., with inversion, found



   Cartesian axes

     site n.     atom                  positions (alat units)
         1           Ge  tau(   1) = (   0.0000000   0.0000000   0.0000000  )
         2           Ge  tau(   2) = (  -0.2500000   0.2500000   0.2500000  )

     number of k points=   834  Gaussian smearing, width (Ry)=  0.0200

     Number of k-points >= 100: set verbosity='high' to print them.

     Dense  grid:    22419 G-vectors     FFT dimensions: (  40,  40,  40)

     Estimated max dynamical RAM per process >      12.99 MB

     Estimated total dynamical RAM >     623.58 MB

     The potential is recalculated from file :
     ./_ph0/ge.q_4/ge.save/charge-density

     Starting wfcs are    8 atomic wfcs
     Checking if some PAW data can be deallocated... 

     Band Structure Calculation
     Davidson diagonalization with overlap

     ethr =  1.25E-10,  avg # of iterations = 14.9

     total cpu time spent up to now is       18.1 secs

     End of band structure calculation

     Number of k-points >= 100: set verbosity='high' to print the bands.

     the Fermi energy is     5.5827 ev

     Writing output data file ./_ph0/ge.q_4/ge.save/

     phonon                                                                     

     bravais-lattice index     =            2
     lattice parameter (alat)  =      10.7466  a.u.
     unit-cell volume          =     310.2790 (a.u.)^3
     number of atoms/cell      =            2
     number of atomic types    =            1
     kinetic-energy cut-off    =      66.0000  Ry
     charge density cut-off    =     264.0000  Ry
     convergence threshold     =      1.0E-22
     beta                      =       0.7000
     number of iterations used =            4
     Exchange-correlation= PBESOL
                           (   1   4  10   8   0   0   0)


     celldm(1)=   10.74659  celldm(2)=    0.00000  celldm(3)=    0.00000
     celldm(4)=    0.00000  celldm(5)=    0.00000  celldm(6)=    0.00000

     crystal axes: (cart. coord. in units of alat)
               a(1) = ( -0.5000  0.0000  0.5000 )  
               a(2) = (  0.0000  0.5000  0.5000 )  
               a(3) = ( -0.5000  0.5000  0.0000 )  

     reciprocal axes: (cart. coord. in units 2 pi/alat)
               b(1) = ( -1.0000 -1.0000  1.0000 )  
               b(2) = (  1.0000  1.0000  1.0000 )  
               b(3) = ( -1.0000  1.0000 -1.0000 )  


     Atoms inside the unit cell: 

     Cartesian axes

     site n.  atom      mass           positions (alat units)
        1     Ge 172.6000   tau(    1) = (    0.00000    0.00000    0.00000  )
        2     Ge 172.6000   tau(    2) = (   -0.25000    0.25000    0.25000  )

     Computing dynamical matrix for 
                    q = (   0.5000000  -0.5000000   0.5000000 )
 
     13 Sym.Ops. (with q -> -q+G )


     G cutoff =  772.2996  (  22419 G-vectors)     FFT grid: ( 40, 40, 40)

     number of k points=   834  Gaussian smearing, width (Ry)=  0.0200

     PseudoPot. # 1 for Ge read from file:
     /scratch1/fanchem/Ge/pp/Ge.pbesol-n-kjpaw_psl.1.0.0.UPF
     MD5 check sum: 745875865497f3c829262459a163315c
     Pseudo is Projector augmented-wave + core cor, Zval =  4.0
     Generated using "atomic" code by A. Dal Corso v.6.6
     Shape of augmentation charge: PSQ
     Using radial grid of 1207 points,  4 beta functions with: 
                l(1) =   0
                l(2) =   0
                l(3) =   1
                l(4) =   1
     Q(r) pseudized with 0 coefficients 



     Atomic displacements:
     There are    4 irreducible representations

     Representation     1      1 modes -  To be done

     Representation     2      1 modes -  To be done

     Representation     3      2 modes -  To be done

     Representation     4      2 modes -  To be done



     Alpha used in Ewald sum =   2.8000
     PHONON       :   5m15.41s CPU   6m 5.85s WALL



     Representation #   1 mode #   1

     Self-consistent Calculation

      iter #   1 total cpu time :   366.8 secs   av.it.:   4.3
      thresh= 1.000E-02 alpha_mix =  0.700 |ddv_scf|^2 =  2.676E-06

      iter #   2 total cpu time :   367.9 secs   av.it.:   7.9
      thresh= 1.636E-04 alpha_mix =  0.700 |ddv_scf|^2 =  3.085E-06

      iter #   3 total cpu time :   368.9 secs   av.it.:   7.3
      thresh= 1.756E-04 alpha_mix =  0.700 |ddv_scf|^2 =  1.479E-09

      iter #   4 total cpu time :   370.0 secs   av.it.:   8.0
      thresh= 3.845E-06 alpha_mix =  0.700 |ddv_scf|^2 =  6.186E-11

      iter #   5 total cpu time :   371.0 secs   av.it.:   7.6
      thresh= 7.865E-07 alpha_mix =  0.700 |ddv_scf|^2 =  6.249E-13

      iter #   6 total cpu time :   372.1 secs   av.it.:   7.3
      thresh= 7.905E-08 alpha_mix =  0.700 |ddv_scf|^2 =  7.981E-15

      iter #   7 total cpu time :   373.1 secs   av.it.:   7.4
      thresh= 8.934E-09 alpha_mix =  0.700 |ddv_scf|^2 =  2.998E-16

      iter #   8 total cpu time :   374.1 secs   av.it.:   7.2
      thresh= 1.732E-09 alpha_mix =  0.700 |ddv_scf|^2 =  3.032E-18

      iter #   9 total cpu time :   375.2 secs   av.it.:   7.7
      thresh= 1.741E-10 alpha_mix =  0.700 |ddv_scf|^2 =  1.782E-19

      iter #  10 total cpu time :   376.5 secs   av.it.:   7.5
      thresh= 4.222E-11 alpha_mix =  0.700 |ddv_scf|^2 =  6.529E-21

      iter #  11 total cpu time :   377.9 secs   av.it.:   7.4
      thresh= 8.080E-12 alpha_mix =  0.700 |ddv_scf|^2 =  1.887E-22

      iter #  12 total cpu time :   378.8 secs   av.it.:   7.3
      thresh= 1.374E-12 alpha_mix =  0.700 |ddv_scf|^2 =  8.118E-24

     End of self-consistent calculation

     Convergence has been achieved 


     Representation #   2 mode #   2

     Self-consistent Calculation

      iter #   1 total cpu time :   379.8 secs   av.it.:   4.9
      thresh= 1.000E-02 alpha_mix =  0.700 |ddv_scf|^2 =  3.109E-05

      iter #   2 total cpu time :   380.7 secs   av.it.:   7.8
      thresh= 5.576E-04 alpha_mix =  0.700 |ddv_scf|^2 =  8.487E-05

      iter #   3 total cpu time :   381.6 secs   av.it.:   7.0
      thresh= 9.212E-04 alpha_mix =  0.700 |ddv_scf|^2 =  2.406E-08

      iter #   4 total cpu time :   382.6 secs   av.it.:   7.6
      thresh= 1.551E-05 alpha_mix =  0.700 |ddv_scf|^2 =  4.141E-10

      iter #   5 total cpu time :   383.6 secs   av.it.:   8.1
      thresh= 2.035E-06 alpha_mix =  0.700 |ddv_scf|^2 =  2.290E-11

      iter #   6 total cpu time :   384.6 secs   av.it.:   7.7
      thresh= 4.785E-07 alpha_mix =  0.700 |ddv_scf|^2 =  5.596E-13

      iter #   7 total cpu time :   385.5 secs   av.it.:   7.4
      thresh= 7.480E-08 alpha_mix =  0.700 |ddv_scf|^2 =  1.428E-15

      iter #   8 total cpu time :   387.2 secs   av.it.:   7.6
      thresh= 3.779E-09 alpha_mix =  0.700 |ddv_scf|^2 =  5.229E-17

      iter #   9 total cpu time :   388.2 secs   av.it.:   7.3
      thresh= 7.231E-10 alpha_mix =  0.700 |ddv_scf|^2 =  9.362E-19

      iter #  10 total cpu time :   389.2 secs   av.it.:   7.6
      thresh= 9.676E-11 alpha_mix =  0.700 |ddv_scf|^2 =  2.635E-20

      iter #  11 total cpu time :   390.2 secs   av.it.:   7.8
      thresh= 1.623E-11 alpha_mix =  0.700 |ddv_scf|^2 =  2.036E-20

      iter #  12 total cpu time :   391.2 secs   av.it.:   7.2
      thresh= 1.427E-11 alpha_mix =  0.700 |ddv_scf|^2 =  1.207E-22

      iter #  13 total cpu time :   392.7 secs   av.it.:   7.8
      thresh= 1.099E-12 alpha_mix =  0.700 |ddv_scf|^2 =  9.782E-24

     End of self-consistent calculation

     Convergence has been achieved 


     Representation #   3 modes #   3   4

     Self-consistent Calculation

      iter #   1 total cpu time :   394.3 secs   av.it.:   4.2
      thresh= 1.000E-02 alpha_mix =  0.700 |ddv_scf|^2 =  4.954E-08

      iter #   2 total cpu time :   396.2 secs   av.it.:   8.7
      thresh= 2.226E-05 alpha_mix =  0.700 |ddv_scf|^2 =  2.312E-09

      iter #   3 total cpu time :   398.2 secs   av.it.:   8.9
      thresh= 4.808E-06 alpha_mix =  0.700 |ddv_scf|^2 =  1.745E-10

      iter #   4 total cpu time :   400.2 secs   av.it.:   8.7
      thresh= 1.321E-06 alpha_mix =  0.700 |ddv_scf|^2 =  3.619E-12

      iter #   5 total cpu time :   402.2 secs   av.it.:   8.1
      thresh= 1.902E-07 alpha_mix =  0.700 |ddv_scf|^2 =  3.702E-15

      iter #   6 total cpu time :   404.2 secs   av.it.:   8.6
      thresh= 6.084E-09 alpha_mix =  0.700 |ddv_scf|^2 =  1.284E-16

      iter #   7 total cpu time :   406.2 secs   av.it.:   8.2
      thresh= 1.133E-09 alpha_mix =  0.700 |ddv_scf|^2 =  3.822E-18

      iter #   8 total cpu time :   408.2 secs   av.it.:   8.4
      thresh= 1.955E-10 alpha_mix =  0.700 |ddv_scf|^2 =  5.616E-20

      iter #   9 total cpu time :   410.2 secs   av.it.:   8.7
      thresh= 2.370E-11 alpha_mix =  0.700 |ddv_scf|^2 =  1.286E-21

      iter #  10 total cpu time :   412.6 secs   av.it.:   8.9
      thresh= 3.586E-12 alpha_mix =  0.700 |ddv_scf|^2 =  5.035E-23

     End of self-consistent calculation

     Convergence has been achieved 


     Representation #   4 modes #   5   6

     Self-consistent Calculation

      iter #   1 total cpu time :   415.4 secs   av.it.:   4.1
      thresh= 1.000E-02 alpha_mix =  0.700 |ddv_scf|^2 =  1.711E-08

      iter #   2 total cpu time :   417.4 secs   av.it.:   9.0
      thresh= 1.308E-05 alpha_mix =  0.700 |ddv_scf|^2 =  7.109E-10

      iter #   3 total cpu time :   419.6 secs   av.it.:   9.0
      thresh= 2.666E-06 alpha_mix =  0.700 |ddv_scf|^2 =  2.223E-11

      iter #   4 total cpu time :   422.2 secs   av.it.:   8.5
      thresh= 4.715E-07 alpha_mix =  0.700 |ddv_scf|^2 =  1.665E-13

      iter #   5 total cpu time :   425.0 secs   av.it.:   8.6
      thresh= 4.080E-08 alpha_mix =  0.700 |ddv_scf|^2 =  1.777E-15

      iter #   6 total cpu time :   427.6 secs   av.it.:   8.6
      thresh= 4.216E-09 alpha_mix =  0.700 |ddv_scf|^2 =  1.137E-16

      iter #   7 total cpu time :   429.7 secs   av.it.:   8.2
      thresh= 1.067E-09 alpha_mix =  0.700 |ddv_scf|^2 =  5.751E-18

      iter #   8 total cpu time :   434.2 secs   av.it.:   8.5
      thresh= 2.398E-10 alpha_mix =  0.700 |ddv_scf|^2 =  4.506E-20

      iter #   9 total cpu time :   436.7 secs   av.it.:   8.7
      thresh= 2.123E-11 alpha_mix =  0.700 |ddv_scf|^2 =  2.269E-22

      iter #  10 total cpu time :   438.5 secs   av.it.:   8.6
      thresh= 1.506E-12 alpha_mix =  0.700 |ddv_scf|^2 =  1.590E-23

     End of self-consistent calculation

     Convergence has been achieved 
 
     Number of q in the star =    4
     List of q in the star:
          1   0.500000000  -0.500000000   0.500000000
          2   0.500000000   0.500000000   0.500000000
          3  -0.500000000   0.500000000   0.500000000
          4   0.500000000   0.500000000  -0.500000000

     Diagonalizing the dynamical matrix

     q = (    0.500000000  -0.500000000   0.500000000 ) 

 **************************************************************************
     freq (    1) =       1.113605 [THz] =      37.145850 [cm-1]
     freq (    2) =       1.113605 [THz] =      37.145850 [cm-1]
     freq (    3) =       4.148549 [THz] =     138.380706 [cm-1]
     freq (    4) =       4.501487 [THz] =     150.153441 [cm-1]
     freq (    5) =       5.395839 [THz] =     179.985815 [cm-1]
     freq (    6) =       5.395839 [THz] =     179.985815 [cm-1]
 **************************************************************************

     Calculation of q =    0.0000000   0.3333333   0.0000000
 
     G-vector sticks info
     --------------------
     sticks:   dense  smooth     PW     G-vecs:    dense   smooth      PW
     Sum        1045    1045    313                22419    22419    3839
 

     Title: 
     phonon                                                                     


     bravais-lattice index     =            2
     lattice parameter (alat)  =      10.7466  a.u.
     unit-cell volume          =     310.2790 (a.u.)^3
     number of atoms/cell      =            2
     number of atomic types    =            1
     number of electrons       =         8.00
     number of Kohn-Sham states=            8
     kinetic-energy cutoff     =      66.0000  Ry
     charge density cutoff     =     264.0000  Ry
     Exchange-correlation= PBESOL
                           (   1   4  10   8   0   0   0)

     celldm(1)=  10.746593  celldm(2)=   0.000000  celldm(3)=   0.000000
     celldm(4)=   0.000000  celldm(5)=   0.000000  celldm(6)=   0.000000

     crystal axes: (cart. coord. in units of alat)
               a(1) = (  -0.500000   0.000000   0.500000 )  
               a(2) = (   0.000000   0.500000   0.500000 )  
               a(3) = (  -0.500000   0.500000   0.000000 )  

     reciprocal axes: (cart. coord. in units 2 pi/alat)
               b(1) = ( -1.000000 -1.000000  1.000000 )  
               b(2) = (  1.000000  1.000000  1.000000 )  
               b(3) = ( -1.000000  1.000000 -1.000000 )  


     PseudoPot. # 1 for Ge read from file:
     /scratch1/fanchem/Ge/pp/Ge.pbesol-n-kjpaw_psl.1.0.0.UPF
     MD5 check sum: 745875865497f3c829262459a163315c
     Pseudo is Projector augmented-wave + core cor, Zval =  4.0
     Generated using "atomic" code by A. Dal Corso v.6.6
     Shape of augmentation charge: PSQ
     Using radial grid of 1207 points,  4 beta functions with: 
                l(1) =   0
                l(2) =   0
                l(3) =   1
                l(4) =   1
     Q(r) pseudized with 0 coefficients 


     atomic species   valence    mass     pseudopotential
        Ge             4.00   172.60000     Ge( 1.00)

     48 Sym. Ops., with inversion, found



   Cartesian axes

     site n.     atom                  positions (alat units)
         1           Ge  tau(   1) = (   0.0000000   0.0000000   0.0000000  )
         2           Ge  tau(   2) = (  -0.2500000   0.2500000   0.2500000  )

     number of k points=  1296  Gaussian smearing, width (Ry)=  0.0200

     Number of k-points >= 100: set verbosity='high' to print them.

     Dense  grid:    22419 G-vectors     FFT dimensions: (  40,  40,  40)

     Estimated max dynamical RAM per process >      12.98 MB

     Estimated total dynamical RAM >     623.24 MB

     The potential is recalculated from file :
     ./_ph0/ge.q_5/ge.save/charge-density

     Starting wfcs are    8 atomic wfcs
     Checking if some PAW data can be deallocated... 

     Band Structure Calculation
     Davidson diagonalization with overlap

     ethr =  1.25E-10,  avg # of iterations = 14.9

     total cpu time spent up to now is       23.7 secs

     End of band structure calculation

     Number of k-points >= 100: set verbosity='high' to print the bands.

     the Fermi energy is     5.5827 ev

     Writing output data file ./_ph0/ge.q_5/ge.save/

     phonon                                                                     

     bravais-lattice index     =            2
     lattice parameter (alat)  =      10.7466  a.u.
     unit-cell volume          =     310.2790 (a.u.)^3
     number of atoms/cell      =            2
     number of atomic types    =            1
     kinetic-energy cut-off    =      66.0000  Ry
     charge density cut-off    =     264.0000  Ry
     convergence threshold     =      1.0E-22
     beta                      =       0.7000
     number of iterations used =            4
     Exchange-correlation= PBESOL
                           (   1   4  10   8   0   0   0)


     celldm(1)=   10.74659  celldm(2)=    0.00000  celldm(3)=    0.00000
     celldm(4)=    0.00000  celldm(5)=    0.00000  celldm(6)=    0.00000

     crystal axes: (cart. coord. in units of alat)
               a(1) = ( -0.5000  0.0000  0.5000 )  
               a(2) = (  0.0000  0.5000  0.5000 )  
               a(3) = ( -0.5000  0.5000  0.0000 )  

     reciprocal axes: (cart. coord. in units 2 pi/alat)
               b(1) = ( -1.0000 -1.0000  1.0000 )  
               b(2) = (  1.0000  1.0000  1.0000 )  
               b(3) = ( -1.0000  1.0000 -1.0000 )  


     Atoms inside the unit cell: 

     Cartesian axes

     site n.  atom      mass           positions (alat units)
        1     Ge 172.6000   tau(    1) = (    0.00000    0.00000    0.00000  )
        2     Ge 172.6000   tau(    2) = (   -0.25000    0.25000    0.25000  )

     Computing dynamical matrix for 
                    q = (   0.0000000   0.3333333   0.0000000 )
 
      8 Sym.Ops. (no q -> -q+G )


     G cutoff =  772.2996  (  22419 G-vectors)     FFT grid: ( 40, 40, 40)

     number of k points=  1296  Gaussian smearing, width (Ry)=  0.0200

     PseudoPot. # 1 for Ge read from file:
     /scratch1/fanchem/Ge/pp/Ge.pbesol-n-kjpaw_psl.1.0.0.UPF
     MD5 check sum: 745875865497f3c829262459a163315c
     Pseudo is Projector augmented-wave + core cor, Zval =  4.0
     Generated using "atomic" code by A. Dal Corso v.6.6
     Shape of augmentation charge: PSQ
     Using radial grid of 1207 points,  4 beta functions with: 
                l(1) =   0
                l(2) =   0
                l(3) =   1
                l(4) =   1
     Q(r) pseudized with 0 coefficients 


     Mode symmetry, C_4v (4mm)  point group:


     Atomic displacements:
     There are    4 irreducible representations

     Representation     1      1 modes -  To be done

     Representation     2      1 modes -  To be done

     Representation     3      2 modes -  To be done

     Representation     4      2 modes -  To be done



     Alpha used in Ewald sum =   2.8000
     PHONON       :   6m26.03s CPU   7m27.23s WALL



     Representation #   1 mode #   1

     Self-consistent Calculation

      iter #   1 total cpu time :   448.3 secs   av.it.:   5.1
      thresh= 1.000E-02 alpha_mix =  0.700 |ddv_scf|^2 =  2.263E-03

      iter #   2 total cpu time :   449.6 secs   av.it.:   7.1
      thresh= 4.757E-03 alpha_mix =  0.700 |ddv_scf|^2 =  9.829E-02

      iter #   3 total cpu time :   451.4 secs   av.it.:   6.4
      thresh= 1.000E-02 alpha_mix =  0.700 |ddv_scf|^2 =  3.203E-08

      iter #   4 total cpu time :   452.7 secs   av.it.:   7.2
      thresh= 1.790E-05 alpha_mix =  0.700 |ddv_scf|^2 =  1.549E-08

      iter #   5 total cpu time :   453.9 secs   av.it.:   6.3
      thresh= 1.245E-05 alpha_mix =  0.700 |ddv_scf|^2 =  7.557E-11

      iter #   6 total cpu time :   455.4 secs   av.it.:   7.0
      thresh= 8.693E-07 alpha_mix =  0.700 |ddv_scf|^2 =  1.986E-12

      iter #   7 total cpu time :   456.7 secs   av.it.:   7.0
      thresh= 1.409E-07 alpha_mix =  0.700 |ddv_scf|^2 =  2.777E-13

      iter #   8 total cpu time :   457.8 secs   av.it.:   5.8
      thresh= 5.269E-08 alpha_mix =  0.700 |ddv_scf|^2 =  5.523E-16

      iter #   9 total cpu time :   459.1 secs   av.it.:   6.6
      thresh= 2.350E-09 alpha_mix =  0.700 |ddv_scf|^2 =  1.474E-17

      iter #  10 total cpu time :   460.4 secs   av.it.:   7.2
      thresh= 3.840E-10 alpha_mix =  0.700 |ddv_scf|^2 =  7.851E-19

      iter #  11 total cpu time :   462.4 secs   av.it.:   6.9
      thresh= 8.860E-11 alpha_mix =  0.700 |ddv_scf|^2 =  3.720E-19

      iter #  12 total cpu time :   463.6 secs   av.it.:   5.5
      thresh= 6.099E-11 alpha_mix =  0.700 |ddv_scf|^2 =  1.767E-20

      iter #  13 total cpu time :   464.9 secs   av.it.:   6.6
      thresh= 1.329E-11 alpha_mix =  0.700 |ddv_scf|^2 =  2.594E-22

      iter #  14 total cpu time :   466.2 secs   av.it.:   6.8
      thresh= 1.611E-12 alpha_mix =  0.700 |ddv_scf|^2 =  8.174E-24

     End of self-consistent calculation

     Convergence has been achieved 


     Representation #   2 mode #   2

     Self-consistent Calculation

      iter #   1 total cpu time :   467.4 secs   av.it.:   4.1
      thresh= 1.000E-02 alpha_mix =  0.700 |ddv_scf|^2 =  1.887E-07

      iter #   2 total cpu time :   468.8 secs   av.it.:   8.2
      thresh= 4.344E-05 alpha_mix =  0.700 |ddv_scf|^2 =  3.816E-08

      iter #   3 total cpu time :   470.1 secs   av.it.:   8.1
      thresh= 1.954E-05 alpha_mix =  0.700 |ddv_scf|^2 =  1.435E-09

      iter #   4 total cpu time :   471.5 secs   av.it.:   8.1
      thresh= 3.788E-06 alpha_mix =  0.700 |ddv_scf|^2 =  3.431E-11

      iter #   5 total cpu time :   472.9 secs   av.it.:   7.9
      thresh= 5.857E-07 alpha_mix =  0.700 |ddv_scf|^2 =  1.121E-12

      iter #   6 total cpu time :   474.3 secs   av.it.:   7.7
      thresh= 1.059E-07 alpha_mix =  0.700 |ddv_scf|^2 =  6.043E-15

      iter #   7 total cpu time :   475.7 secs   av.it.:   7.7
      thresh= 7.774E-09 alpha_mix =  0.700 |ddv_scf|^2 =  3.455E-16

      iter #   8 total cpu time :   477.1 secs   av.it.:   7.7
      thresh= 1.859E-09 alpha_mix =  0.700 |ddv_scf|^2 =  8.843E-18

      iter #   9 total cpu time :   478.5 secs   av.it.:   7.6
      thresh= 2.974E-10 alpha_mix =  0.700 |ddv_scf|^2 =  3.373E-19

      iter #  10 total cpu time :   480.0 secs   av.it.:   8.3
      thresh= 5.808E-11 alpha_mix =  0.700 |ddv_scf|^2 =  5.974E-20

      iter #  11 total cpu time :   481.4 secs   av.it.:   8.0
      thresh= 2.444E-11 alpha_mix =  0.700 |ddv_scf|^2 =  5.890E-22

      iter #  12 total cpu time :   482.8 secs   av.it.:   7.9
      thresh= 2.427E-12 alpha_mix =  0.700 |ddv_scf|^2 =  3.277E-23

     End of self-consistent calculation

     Convergence has been achieved 


     Representation #   3 modes #   3   4

     Self-consistent Calculation

      iter #   1 total cpu time :   484.9 secs   av.it.:   4.3
      thresh= 1.000E-02 alpha_mix =  0.700 |ddv_scf|^2 =  3.277E-08

      iter #   2 total cpu time :   488.7 secs   av.it.:   9.1
      thresh= 1.810E-05 alpha_mix =  0.700 |ddv_scf|^2 =  1.707E-09

      iter #   3 total cpu time :   491.6 secs   av.it.:   9.1
      thresh= 4.131E-06 alpha_mix =  0.700 |ddv_scf|^2 =  1.409E-10

      iter #   4 total cpu time :   494.4 secs   av.it.:   8.9
      thresh= 1.187E-06 alpha_mix =  0.700 |ddv_scf|^2 =  3.561E-12

      iter #   5 total cpu time :   497.3 secs   av.it.:   8.5
      thresh= 1.887E-07 alpha_mix =  0.700 |ddv_scf|^2 =  1.888E-14

      iter #   6 total cpu time :   500.1 secs   av.it.:   8.4
      thresh= 1.374E-08 alpha_mix =  0.700 |ddv_scf|^2 =  5.671E-16

      iter #   7 total cpu time :   503.0 secs   av.it.:   8.7
      thresh= 2.381E-09 alpha_mix =  0.700 |ddv_scf|^2 =  1.307E-17

      iter #   8 total cpu time :   505.8 secs   av.it.:   8.4
      thresh= 3.615E-10 alpha_mix =  0.700 |ddv_scf|^2 =  6.112E-19

      iter #   9 total cpu time :   508.9 secs   av.it.:   8.5
      thresh= 7.818E-11 alpha_mix =  0.700 |ddv_scf|^2 =  6.251E-21

      iter #  10 total cpu time :   511.9 secs   av.it.:   9.0
      thresh= 7.906E-12 alpha_mix =  0.700 |ddv_scf|^2 =  4.173E-22

      iter #  11 total cpu time :   514.6 secs   av.it.:   8.9
      thresh= 2.043E-12 alpha_mix =  0.700 |ddv_scf|^2 =  1.829E-23

     End of self-consistent calculation

     Convergence has been achieved 


     Representation #   4 modes #   5   6

     Self-consistent Calculation

      iter #   1 total cpu time :   516.8 secs   av.it.:   4.3
      thresh= 1.000E-02 alpha_mix =  0.700 |ddv_scf|^2 =  4.155E-08

      iter #   2 total cpu time :   519.6 secs   av.it.:   9.0
      thresh= 2.038E-05 alpha_mix =  0.700 |ddv_scf|^2 =  2.138E-09

      iter #   3 total cpu time :   522.4 secs   av.it.:   9.0
      thresh= 4.624E-06 alpha_mix =  0.700 |ddv_scf|^2 =  1.596E-10

      iter #   4 total cpu time :   525.3 secs   av.it.:   8.9
      thresh= 1.263E-06 alpha_mix =  0.700 |ddv_scf|^2 =  3.685E-12

      iter #   5 total cpu time :   528.3 secs   av.it.:   8.5
      thresh= 1.920E-07 alpha_mix =  0.700 |ddv_scf|^2 =  2.228E-14

      iter #   6 total cpu time :   531.1 secs   av.it.:   8.4
      thresh= 1.493E-08 alpha_mix =  0.700 |ddv_scf|^2 =  6.405E-16

      iter #   7 total cpu time :   533.9 secs   av.it.:   8.6
      thresh= 2.531E-09 alpha_mix =  0.700 |ddv_scf|^2 =  1.709E-17

      iter #   8 total cpu time :   539.3 secs   av.it.:   8.4
      thresh= 4.134E-10 alpha_mix =  0.700 |ddv_scf|^2 =  6.841E-19

      iter #   9 total cpu time :   542.1 secs   av.it.:   8.5
      thresh= 8.271E-11 alpha_mix =  0.700 |ddv_scf|^2 =  7.094E-21

      iter #  10 total cpu time :   545.1 secs   av.it.:   9.0
      thresh= 8.423E-12 alpha_mix =  0.700 |ddv_scf|^2 =  4.783E-22

      iter #  11 total cpu time :   547.8 secs   av.it.:   8.8
      thresh= 2.187E-12 alpha_mix =  0.700 |ddv_scf|^2 =  2.104E-23

     End of self-consistent calculation

     Convergence has been achieved 
 
     Number of q in the star =    6
     List of q in the star:
          1   0.000000000   0.333333333   0.000000000
          2   0.333333333   0.000000000   0.000000000
          3   0.000000000   0.000000000   0.333333333
          4   0.000000000  -0.333333333   0.000000000
          5  -0.333333333   0.000000000   0.000000000
          6   0.000000000   0.000000000  -0.333333333

     Diagonalizing the dynamical matrix

     q = (    0.000000000   0.333333333   0.000000000 ) 

 **************************************************************************
     freq (    1) =       1.041350 [THz] =      34.735681 [cm-1]
     freq (    2) =       1.041350 [THz] =      34.735681 [cm-1]
     freq (    3) =       1.757048 [THz] =      58.608804 [cm-1]
     freq (    4) =       5.358270 [THz] =     178.732649 [cm-1]
     freq (    5) =       5.358270 [THz] =     178.732649 [cm-1]
     freq (    6) =       5.590283 [THz] =     186.471758 [cm-1]
 **************************************************************************

     Mode symmetry, C_4v (4mm)  point group:

     freq (   1-   2) =         34.7  [cm-1]   --> E    G_5 D_5       
     freq (   3-   3) =         58.6  [cm-1]   --> A_1  G_1 D_1       
     freq (   4-   5) =        178.7  [cm-1]   --> E    G_5 D_5       
     freq (   6-   6) =        186.5  [cm-1]   --> B_2  G_4 D_2'      

     Calculation of q =   -0.1666667   0.5000000  -0.1666667
 
     G-vector sticks info
     --------------------
     sticks:   dense  smooth     PW     G-vecs:    dense   smooth      PW
     Sum        1045    1045    337                22419    22419    4015
 

     Title: 
     phonon                                                                     


     bravais-lattice index     =            2
     lattice parameter (alat)  =      10.7466  a.u.
     unit-cell volume          =     310.2790 (a.u.)^3
     number of atoms/cell      =            2
     number of atomic types    =            1
     number of electrons       =         8.00
     number of Kohn-Sham states=            8
     kinetic-energy cutoff     =      66.0000  Ry
     charge density cutoff     =     264.0000  Ry
     Exchange-correlation= PBESOL
                           (   1   4  10   8   0   0   0)

     celldm(1)=  10.746593  celldm(2)=   0.000000  celldm(3)=   0.000000
     celldm(4)=   0.000000  celldm(5)=   0.000000  celldm(6)=   0.000000

     crystal axes: (cart. coord. in units of alat)
               a(1) = (  -0.500000   0.000000   0.500000 )  
               a(2) = (   0.000000   0.500000   0.500000 )  
               a(3) = (  -0.500000   0.500000   0.000000 )  

     reciprocal axes: (cart. coord. in units 2 pi/alat)
               b(1) = ( -1.000000 -1.000000  1.000000 )  
               b(2) = (  1.000000  1.000000  1.000000 )  
               b(3) = ( -1.000000  1.000000 -1.000000 )  


     PseudoPot. # 1 for Ge read from file:
     /scratch1/fanchem/Ge/pp/Ge.pbesol-n-kjpaw_psl.1.0.0.UPF
     MD5 check sum: 745875865497f3c829262459a163315c
     Pseudo is Projector augmented-wave + core cor, Zval =  4.0
     Generated using "atomic" code by A. Dal Corso v.6.6
     Shape of augmentation charge: PSQ
     Using radial grid of 1207 points,  4 beta functions with: 
                l(1) =   0
                l(2) =   0
                l(3) =   1
                l(4) =   1
     Q(r) pseudized with 0 coefficients 


     atomic species   valence    mass     pseudopotential
        Ge             4.00   172.60000     Ge( 1.00)

     48 Sym. Ops., with inversion, found



   Cartesian axes

     site n.     atom                  positions (alat units)
         1           Ge  tau(   1) = (   0.0000000   0.0000000   0.0000000  )
         2           Ge  tau(   2) = (  -0.2500000   0.2500000   0.2500000  )

     number of k points=  4352  Gaussian smearing, width (Ry)=  0.0200

     Number of k-points >= 100: set verbosity='high' to print them.

     Dense  grid:    22419 G-vectors     FFT dimensions: (  40,  40,  40)

     Estimated max dynamical RAM per process >      12.99 MB

     Estimated total dynamical RAM >     623.38 MB

     The potential is recalculated from file :
     ./_ph0/ge.q_6/ge.save/charge-density

     Starting wfcs are    8 atomic wfcs
     Checking if some PAW data can be deallocated... 

     Band Structure Calculation
     Davidson diagonalization with overlap

     ethr =  1.25E-10,  avg # of iterations = 15.2

     total cpu time spent up to now is       42.0 secs

     End of band structure calculation

     Number of k-points >= 100: set verbosity='high' to print the bands.

     the Fermi energy is     5.5827 ev

     Writing output data file ./_ph0/ge.q_6/ge.save/

     phonon                                                                     

     bravais-lattice index     =            2
     lattice parameter (alat)  =      10.7466  a.u.
     unit-cell volume          =     310.2790 (a.u.)^3
     number of atoms/cell      =            2
     number of atomic types    =            1
     kinetic-energy cut-off    =      66.0000  Ry
     charge density cut-off    =     264.0000  Ry
     convergence threshold     =      1.0E-22
     beta                      =       0.7000
     number of iterations used =            4
     Exchange-correlation= PBESOL
                           (   1   4  10   8   0   0   0)


     celldm(1)=   10.74659  celldm(2)=    0.00000  celldm(3)=    0.00000
     celldm(4)=    0.00000  celldm(5)=    0.00000  celldm(6)=    0.00000

     crystal axes: (cart. coord. in units of alat)
               a(1) = ( -0.5000  0.0000  0.5000 )  
               a(2) = (  0.0000  0.5000  0.5000 )  
               a(3) = ( -0.5000  0.5000  0.0000 )  

     reciprocal axes: (cart. coord. in units 2 pi/alat)
               b(1) = ( -1.0000 -1.0000  1.0000 )  
               b(2) = (  1.0000  1.0000  1.0000 )  
               b(3) = ( -1.0000  1.0000 -1.0000 )  


     Atoms inside the unit cell: 

     Cartesian axes

     site n.  atom      mass           positions (alat units)
        1     Ge 172.6000   tau(    1) = (    0.00000    0.00000    0.00000  )
        2     Ge 172.6000   tau(    2) = (   -0.25000    0.25000    0.25000  )

     Computing dynamical matrix for 
                    q = (  -0.1666667   0.5000000  -0.1666667 )
 
      2 Sym.Ops. (no q -> -q+G )


     G cutoff =  772.2996  (  22419 G-vectors)     FFT grid: ( 40, 40, 40)

     number of k points=  4352  Gaussian smearing, width (Ry)=  0.0200

     PseudoPot. # 1 for Ge read from file:
     /scratch1/fanchem/Ge/pp/Ge.pbesol-n-kjpaw_psl.1.0.0.UPF
     MD5 check sum: 745875865497f3c829262459a163315c
     Pseudo is Projector augmented-wave + core cor, Zval =  4.0
     Generated using "atomic" code by A. Dal Corso v.6.6
     Shape of augmentation charge: PSQ
     Using radial grid of 1207 points,  4 beta functions with: 
                l(1) =   0
                l(2) =   0
                l(3) =   1
                l(4) =   1
     Q(r) pseudized with 0 coefficients 


     Mode symmetry, C_s (m)     point group:


     Atomic displacements:
     There are    6 irreducible representations

     Representation     1      1 modes -  To be done

     Representation     2      1 modes -  To be done

     Representation     3      1 modes -  To be done

     Representation     4      1 modes -  To be done

     Representation     5      1 modes -  To be done

     Representation     6      1 modes -  To be done



     Alpha used in Ewald sum =   2.8000
     PHONON       :   8m14.49s CPU   9m30.97s WALL



     Representation #   1 mode #   1

     Self-consistent Calculation

      iter #   1 total cpu time :   574.1 secs   av.it.:   5.0
      thresh= 1.000E-02 alpha_mix =  0.700 |ddv_scf|^2 =  1.007E-04

[...]
     freq (    5) =       5.162325 [THz] =     172.196621 [cm-1]
     freq (    6) =       5.226725 [THz] =     174.344775 [cm-1]
 **************************************************************************

     Calculation of q =   -0.3333333  -1.0000000   0.0000000
 
     G-vector sticks info
     --------------------
     sticks:   dense  smooth     PW     G-vecs:    dense   smooth      PW
     Sum        1045    1045    361                22419    22419    4477
 

     Title: 
     phonon                                                                     


     bravais-lattice index     =            2
     lattice parameter (alat)  =      10.7466  a.u.
     unit-cell volume          =     310.2790 (a.u.)^3
     number of atoms/cell      =            2
     number of atomic types    =            1
     number of electrons       =         8.00
     number of Kohn-Sham states=            8
     kinetic-energy cutoff     =      66.0000  Ry
     charge density cutoff     =     264.0000  Ry
     Exchange-correlation= PBESOL
                           (   1   4  10   8   0   0   0)

     celldm(1)=  10.746593  celldm(2)=   0.000000  celldm(3)=   0.000000
     celldm(4)=   0.000000  celldm(5)=   0.000000  celldm(6)=   0.000000

     crystal axes: (cart. coord. in units of alat)
               a(1) = (  -0.500000   0.000000   0.500000 )  
               a(2) = (   0.000000   0.500000   0.500000 )  
               a(3) = (  -0.500000   0.500000   0.000000 )  

     reciprocal axes: (cart. coord. in units 2 pi/alat)
               b(1) = ( -1.000000 -1.000000  1.000000 )  
               b(2) = (  1.000000  1.000000  1.000000 )  
               b(3) = ( -1.000000  1.000000 -1.000000 )  


     PseudoPot. # 1 for Ge read from file:
     /scratch1/fanchem/Ge/pp/Ge.pbesol-n-kjpaw_psl.1.0.0.UPF
     MD5 check sum: 745875865497f3c829262459a163315c
     Pseudo is Projector augmented-wave + core cor, Zval =  4.0
     Generated using "atomic" code by A. Dal Corso v.6.6
     Shape of augmentation charge: PSQ
     Using radial grid of 1207 points,  4 beta functions with: 
                l(1) =   0
                l(2) =   0
                l(3) =   1
                l(4) =   1
     Q(r) pseudized with 0 coefficients 


     atomic species   valence    mass     pseudopotential
        Ge             4.00   172.60000     Ge( 1.00)

     48 Sym. Ops., with inversion, found



   Cartesian axes

     site n.     atom                  positions (alat units)
         1           Ge  tau(   1) = (   0.0000000   0.0000000   0.0000000  )
         2           Ge  tau(   2) = (  -0.2500000   0.2500000   0.2500000  )

     number of k points=  2320  Gaussian smearing, width (Ry)=  0.0200

     Number of k-points >= 100: set verbosity='high' to print them.

     Dense  grid:    22419 G-vectors     FFT dimensions: (  40,  40,  40)

     Estimated max dynamical RAM per process >      12.99 MB

     Estimated total dynamical RAM >     623.70 MB

     The potential is recalculated from file :
     ./_ph0/ge.q_16/ge.save/charge-density

     Starting wfcs are    8 atomic wfcs
     Checking if some PAW data can be deallocated... 

     Band Structure Calculation
     Davidson diagonalization with overlap

     ethr =  1.25E-10,  avg # of iterations = 15.0

     total cpu time spent up to now is      176.2 secs

     End of band structure calculation

     Number of k-points >= 100: set verbosity='high' to print the bands.

     the Fermi energy is     5.5827 ev

     Writing output data file ./_ph0/ge.q_16/ge.save/

     phonon                                                                     

     bravais-lattice index     =            2
     lattice parameter (alat)  =      10.7466  a.u.
     unit-cell volume          =     310.2790 (a.u.)^3
     number of atoms/cell      =            2
     number of atomic types    =            1
     kinetic-energy cut-off    =      66.0000  Ry
     charge density cut-off    =     264.0000  Ry
     convergence threshold     =      1.0E-22
     beta                      =       0.7000
     number of iterations used =            4
     Exchange-correlation= PBESOL
                           (   1   4  10   8   0   0   0)


     celldm(1)=   10.74659  celldm(2)=    0.00000  celldm(3)=    0.00000
     celldm(4)=    0.00000  celldm(5)=    0.00000  celldm(6)=    0.00000

     crystal axes: (cart. coord. in units of alat)
               a(1) = ( -0.5000  0.0000  0.5000 )  
               a(2) = (  0.0000  0.5000  0.5000 )  
               a(3) = ( -0.5000  0.5000  0.0000 )  

     reciprocal axes: (cart. coord. in units 2 pi/alat)
               b(1) = ( -1.0000 -1.0000  1.0000 )  
               b(2) = (  1.0000  1.0000  1.0000 )  
               b(3) = ( -1.0000  1.0000 -1.0000 )  


     Atoms inside the unit cell: 

     Cartesian axes

     site n.  atom      mass           positions (alat units)
        1     Ge 172.6000   tau(    1) = (    0.00000    0.00000    0.00000  )
        2     Ge 172.6000   tau(    2) = (   -0.25000    0.25000    0.25000  )

     Computing dynamical matrix for 
                    q = (  -0.3333333  -1.0000000   0.0000000 )
 
      4 Sym.Ops. (no q -> -q+G )


     G cutoff =  772.2996  (  22419 G-vectors)     FFT grid: ( 40, 40, 40)

     number of k points=  2320  Gaussian smearing, width (Ry)=  0.0200

     PseudoPot. # 1 for Ge read from file:
     /scratch1/fanchem/Ge/pp/Ge.pbesol-n-kjpaw_psl.1.0.0.UPF
     MD5 check sum: 745875865497f3c829262459a163315c
     Pseudo is Projector augmented-wave + core cor, Zval =  4.0
     Generated using "atomic" code by A. Dal Corso v.6.6
     Shape of augmentation charge: PSQ
     Using radial grid of 1207 points,  4 beta functions with: 
                l(1) =   0
                l(2) =   0
                l(3) =   1
                l(4) =   1
     Q(r) pseudized with 0 coefficients 



     Atomic displacements:
     There are    3 irreducible representations

     Representation     1      2 modes -  To be done

     Representation     2      2 modes -  To be done

     Representation     3      2 modes -  To be done



     Alpha used in Ewald sum =   2.8000
     PHONON       :  54m26.25s CPU      1h 0m WALL



     Representation #   1 modes #   1   2

     Self-consistent Calculation

      iter #   1 total cpu time :  3649.2 secs   av.it.:   4.5
      thresh= 1.000E-02 alpha_mix =  0.700 |ddv_scf|^2 =  3.424E-07

      iter #   2 total cpu time :  3655.6 secs   av.it.:   9.0
      thresh= 5.852E-05 alpha_mix =  0.700 |ddv_scf|^2 =  3.803E-07

      iter #   3 total cpu time :  3659.8 secs   av.it.:   8.4
      thresh= 6.166E-05 alpha_mix =  0.700 |ddv_scf|^2 =  4.107E-09

      iter #   4 total cpu time :  3664.3 secs   av.it.:   8.7
      thresh= 6.408E-06 alpha_mix =  0.700 |ddv_scf|^2 =  2.587E-10

      iter #   5 total cpu time :  3668.7 secs   av.it.:   8.7
      thresh= 1.609E-06 alpha_mix =  0.700 |ddv_scf|^2 =  3.387E-12

      iter #   6 total cpu time :  3673.1 secs   av.it.:   8.5
      thresh= 1.840E-07 alpha_mix =  0.700 |ddv_scf|^2 =  4.342E-14

      iter #   7 total cpu time :  3677.6 secs   av.it.:   8.7
      thresh= 2.084E-08 alpha_mix =  0.700 |ddv_scf|^2 =  1.463E-15

      iter #   8 total cpu time :  3682.0 secs   av.it.:   8.7
      thresh= 3.824E-09 alpha_mix =  0.700 |ddv_scf|^2 =  6.057E-17

      iter #   9 total cpu time :  3686.6 secs   av.it.:   8.9
      thresh= 7.783E-10 alpha_mix =  0.700 |ddv_scf|^2 =  3.376E-17

      iter #  10 total cpu time :  3691.1 secs   av.it.:   8.4
      thresh= 5.810E-10 alpha_mix =  0.700 |ddv_scf|^2 =  3.189E-18

      iter #  11 total cpu time :  3695.5 secs   av.it.:   8.6
      thresh= 1.786E-10 alpha_mix =  0.700 |ddv_scf|^2 =  2.698E-19

      iter #  12 total cpu time :  3699.9 secs   av.it.:   8.6
      thresh= 5.194E-11 alpha_mix =  0.700 |ddv_scf|^2 =  1.296E-20

      iter #  13 total cpu time :  3704.4 secs   av.it.:   8.8
      thresh= 1.138E-11 alpha_mix =  0.700 |ddv_scf|^2 =  2.953E-21

      iter #  14 total cpu time :  3708.8 secs   av.it.:   8.7
      thresh= 5.434E-12 alpha_mix =  0.700 |ddv_scf|^2 =  3.543E-22

      iter #  15 total cpu time :  3713.0 secs   av.it.:   8.6
      thresh= 1.882E-12 alpha_mix =  0.700 |ddv_scf|^2 =  2.167E-23

     End of self-consistent calculation

     Convergence has been achieved 


     Representation #   2 modes #   3   4

     Self-consistent Calculation

      iter #   1 total cpu time :  3716.8 secs   av.it.:   4.7
      thresh= 1.000E-02 alpha_mix =  0.700 |ddv_scf|^2 =  6.172E-07

      iter #   2 total cpu time :  3721.5 secs   av.it.:   9.0
      thresh= 7.856E-05 alpha_mix =  0.700 |ddv_scf|^2 =  7.338E-07

      iter #   3 total cpu time :  3728.0 secs   av.it.:   8.4
      thresh= 8.566E-05 alpha_mix =  0.700 |ddv_scf|^2 =  6.313E-09

      iter #   4 total cpu time :  3732.4 secs   av.it.:   8.6
      thresh= 7.945E-06 alpha_mix =  0.700 |ddv_scf|^2 =  2.684E-10

      iter #   5 total cpu time :  3736.9 secs   av.it.:   8.7
      thresh= 1.638E-06 alpha_mix =  0.700 |ddv_scf|^2 =  3.556E-12

      iter #   6 total cpu time :  3741.4 secs   av.it.:   8.5
      thresh= 1.886E-07 alpha_mix =  0.700 |ddv_scf|^2 =  7.700E-14

      iter #   7 total cpu time :  3745.9 secs   av.it.:   8.8
      thresh= 2.775E-08 alpha_mix =  0.700 |ddv_scf|^2 =  2.751E-15

      iter #   8 total cpu time :  3750.3 secs   av.it.:   8.8
      thresh= 5.245E-09 alpha_mix =  0.700 |ddv_scf|^2 =  8.708E-17

      iter #   9 total cpu time :  3754.9 secs   av.it.:   8.9
      thresh= 9.332E-10 alpha_mix =  0.700 |ddv_scf|^2 =  6.168E-17

      iter #  10 total cpu time :  3759.3 secs   av.it.:   8.5
      thresh= 7.854E-10 alpha_mix =  0.700 |ddv_scf|^2 =  4.670E-18

      iter #  11 total cpu time :  3763.7 secs   av.it.:   8.7
      thresh= 2.161E-10 alpha_mix =  0.700 |ddv_scf|^2 =  5.726E-19

      iter #  12 total cpu time :  3768.5 secs   av.it.:   8.6
      thresh= 7.567E-11 alpha_mix =  0.700 |ddv_scf|^2 =  1.257E-20

      iter #  13 total cpu time :  3774.5 secs   av.it.:   9.0
      thresh= 1.121E-11 alpha_mix =  0.700 |ddv_scf|^2 =  2.813E-21

      iter #  14 total cpu time :  3778.9 secs   av.it.:   8.8
      thresh= 5.304E-12 alpha_mix =  0.700 |ddv_scf|^2 =  4.261E-22

      iter #  15 total cpu time :  3783.2 secs   av.it.:   8.6
      thresh= 2.064E-12 alpha_mix =  0.700 |ddv_scf|^2 =  2.167E-23

     End of self-consistent calculation

     Convergence has been achieved 


     Representation #   3 modes #   5   6

     Self-consistent Calculation

      iter #   1 total cpu time :  3786.7 secs   av.it.:   4.8
      thresh= 1.000E-02 alpha_mix =  0.700 |ddv_scf|^2 =  7.574E-07

      iter #   2 total cpu time :  3791.2 secs   av.it.:   9.0
      thresh= 8.703E-05 alpha_mix =  0.700 |ddv_scf|^2 =  7.818E-07

      iter #   3 total cpu time :  3795.8 secs   av.it.:   8.4
      thresh= 8.842E-05 alpha_mix =  0.700 |ddv_scf|^2 =  1.027E-08

      iter #   4 total cpu time :  3800.7 secs   av.it.:   8.6
      thresh= 1.013E-05 alpha_mix =  0.700 |ddv_scf|^2 =  2.791E-10

      iter #   5 total cpu time :  3805.2 secs   av.it.:   8.8
      thresh= 1.670E-06 alpha_mix =  0.700 |ddv_scf|^2 =  3.318E-12

      iter #   6 total cpu time :  3809.6 secs   av.it.:   8.4
      thresh= 1.822E-07 alpha_mix =  0.700 |ddv_scf|^2 =  6.765E-14

      iter #   7 total cpu time :  3814.1 secs   av.it.:   8.6
      thresh= 2.601E-08 alpha_mix =  0.700 |ddv_scf|^2 =  1.051E-15

      iter #   8 total cpu time :  3818.6 secs   av.it.:   8.9
      thresh= 3.242E-09 alpha_mix =  0.700 |ddv_scf|^2 =  1.167E-16

      iter #   9 total cpu time :  3824.6 secs   av.it.:   8.7
      thresh= 1.080E-09 alpha_mix =  0.700 |ddv_scf|^2 =  3.592E-17

      iter #  10 total cpu time :  3828.9 secs   av.it.:   8.5
      thresh= 5.993E-10 alpha_mix =  0.700 |ddv_scf|^2 =  3.841E-18

      iter #  11 total cpu time :  3833.3 secs   av.it.:   8.7
      thresh= 1.960E-10 alpha_mix =  0.700 |ddv_scf|^2 =  5.454E-19

      iter #  12 total cpu time :  3837.8 secs   av.it.:   8.7
      thresh= 7.385E-11 alpha_mix =  0.700 |ddv_scf|^2 =  3.326E-20

      iter #  13 total cpu time :  3844.5 secs   av.it.:   8.8
      thresh= 1.824E-11 alpha_mix =  0.700 |ddv_scf|^2 =  7.043E-21

      iter #  14 total cpu time :  3848.9 secs   av.it.:   8.5
      thresh= 8.392E-12 alpha_mix =  0.700 |ddv_scf|^2 =  2.126E-22

      iter #  15 total cpu time :  3853.3 secs   av.it.:   8.6
      thresh= 1.458E-12 alpha_mix =  0.700 |ddv_scf|^2 =  2.715E-23

     End of self-consistent calculation

     Convergence has been achieved 
 
     Number of q in the star =   12
     List of q in the star:
          1  -0.333333333  -1.000000000   0.000000000
          2   0.000000000  -1.000000000  -0.333333333
          3   0.000000000  -1.000000000   0.333333333
          4   0.333333333  -1.000000000   0.000000000
          5  -1.000000000   0.000000000  -0.333333333
          6   1.000000000   0.000000000   0.333333333
          7   0.000000000   0.333333333   1.000000000
          8   0.000000000  -0.333333333  -1.000000000
          9  -1.000000000  -0.333333333   0.000000000
         10   1.000000000   0.333333333   0.000000000
         11  -0.333333333   0.000000000   1.000000000
         12   0.333333333   0.000000000   1.000000000

     Diagonalizing the dynamical matrix

     q = (   -0.333333333  -1.000000000   0.000000000 ) 

 **************************************************************************
     freq (    1) =       1.834378 [THz] =      61.188275 [cm-1]
     freq (    2) =       1.834378 [THz] =      61.188275 [cm-1]
     freq (    3) =       3.994264 [THz] =     133.234309 [cm-1]
     freq (    4) =       3.994264 [THz] =     133.234309 [cm-1]
     freq (    5) =       5.139435 [THz] =     171.433097 [cm-1]
     freq (    6) =       5.139435 [THz] =     171.433097 [cm-1]
 **************************************************************************
 
     init_run     :      4.76s CPU      5.85s WALL (      15 calls)
     electrons    :    164.75s CPU    167.63s WALL (      15 calls)

     Called by init_run:
     wfcinit      :      0.00s CPU      0.30s WALL (      15 calls)
     potinit      :      1.01s CPU      1.76s WALL (      15 calls)
     hinit0       :      3.21s CPU      3.23s WALL (      15 calls)

     Called by electrons:
     c_bands      :    164.65s CPU    167.52s WALL (      15 calls)
     v_of_rho     :      0.49s CPU      0.54s WALL (      16 calls)
     newd         :      0.02s CPU      0.02s WALL (      16 calls)
     PAW_pot      :      0.46s CPU      0.47s WALL (      16 calls)

     Called by c_bands:
     init_us_2    :     23.44s CPU     23.99s WALL (   41255 calls)
     cegterg      :    110.14s CPU    111.31s WALL (     885 calls)

     Called by *egterg:
     cdiaghg      :      2.15s CPU      2.20s WALL (   13180 calls)
     h_psi        :   1990.20s CPU   2023.07s WALL (  407485 calls)
     s_psi        :     67.44s CPU     69.12s WALL (  840318 calls)
     g_psi        :      1.38s CPU      1.41s WALL (   12326 calls)

     Called by h_psi:
     h_psi:calbec :     47.00s CPU     47.68s WALL (  407485 calls)
     vloc_psi     :   1898.76s CPU   1930.06s WALL (  407485 calls)
     add_vuspsi   :     33.75s CPU     34.46s WALL (  407485 calls)

     General routines
     calbec       :     90.27s CPU     92.38s WALL (  898687 calls)
     fft          :     12.54s CPU     12.73s WALL (   20742 calls)
     ffts         :      1.63s CPU      1.72s WALL (    3176 calls)
     fftw         :   2012.09s CPU   2053.54s WALL ( 3750982 calls)
     davcio       :     27.22s CPU    270.60s WALL (  207198 calls)
 
     Parallel routines
 
     PHONON       :  57m32.87s CPU      1h 4m WALL

     INITIALIZATION: 
     phq_setup    :      1.41s CPU      1.73s WALL (      16 calls)
     phq_init     :     45.81s CPU     49.15s WALL (      16 calls)
 
     phq_init     :     45.81s CPU     49.15s WALL (      16 calls)
     set_drhoc    :     16.91s CPU     16.96s WALL (      48 calls)
     init_vloc    :      0.02s CPU      0.02s WALL (      16 calls)
     init_us_1    :      2.76s CPU      2.78s WALL (      16 calls)
     newd         :      0.02s CPU      0.02s WALL (      16 calls)
     dvanqq       :      3.89s CPU      3.93s WALL (      16 calls)
     drho         :     20.10s CPU     21.54s WALL (      16 calls)
 
     DYNAMICAL MATRIX:
     dynmat0      :     13.48s CPU     14.05s WALL (      16 calls)
     phqscf       :   3231.37s CPU   3618.07s WALL (      16 calls)
     dynmatrix    :      0.24s CPU      0.48s WALL (      16 calls)
 
     phqscf       :   3231.37s CPU   3618.07s WALL (      16 calls)
     solve_linter :   3226.27s CPU   3607.24s WALL (      76 calls)
     drhodv       :      4.85s CPU      8.29s WALL (      76 calls)
 
     dynmat0      :     13.48s CPU     14.05s WALL (      16 calls)
     dynmat_us    :      1.05s CPU      1.44s WALL (      16 calls)
     d2ionq       :      0.08s CPU      0.08s WALL (      16 calls)
     dynmatcc     :     11.82s CPU     11.85s WALL (      16 calls)
 
     dynmat_us    :      1.05s CPU      1.44s WALL (      16 calls)
     addusdynmat  :      0.00s CPU      0.00s WALL (      16 calls)
 
     phqscf       :   3231.37s CPU   3618.07s WALL (      16 calls)
     solve_linter :   3226.27s CPU   3607.24s WALL (      76 calls)
 
     solve_linter :   3226.27s CPU   3607.24s WALL (      76 calls)
     dvqpsi_us    :     31.69s CPU     32.50s WALL (    2586 calls)
     ortho        :     18.69s CPU     19.24s WALL (   39413 calls)
     cgsolve      :   2120.48s CPU   2158.74s WALL (   39413 calls)
     incdrhoscf   :    244.26s CPU    251.93s WALL (   39413 calls)
     addusddens   :     29.02s CPU     36.05s WALL (    1189 calls)
     vpsifft      :    204.15s CPU    217.14s WALL (   36827 calls)
     dv_of_drho   :     32.20s CPU     32.85s WALL (    1335 calls)
     mix_pot      :      4.13s CPU    113.54s WALL (    1113 calls)
     ef_shift     :      0.11s CPU      0.16s WALL (      21 calls)
     localdos     :      0.07s CPU      0.09s WALL (       2 calls)
     psymdvscf    :     16.95s CPU     17.07s WALL (    1113 calls)
     newdq        :     31.85s CPU     32.12s WALL (    1113 calls)
     adddvscf     :     13.05s CPU     13.26s WALL (   36827 calls)
     drhodvus     :      1.32s CPU      4.27s WALL (      76 calls)
 
     dvqpsi_us    :     31.69s CPU     32.50s WALL (    2586 calls)
     dvqpsi_us_on :      3.00s CPU      3.03s WALL (    2586 calls)
 
     cgsolve      :   2120.48s CPU   2158.74s WALL (   39413 calls)
     ch_psi       :   2066.19s CPU   2102.14s WALL (  393420 calls)
 
     ch_psi       :   2066.19s CPU   2102.14s WALL (  393420 calls)
     h_psi        :   1990.20s CPU   2023.07s WALL (  407485 calls)
     last         :    124.66s CPU    127.54s WALL (  393420 calls)
 
     h_psi        :   1990.20s CPU   2023.07s WALL (  407485 calls)
     add_vuspsi   :     33.75s CPU     34.46s WALL (  407485 calls)
 
     incdrhoscf   :    244.26s CPU    251.93s WALL (   39413 calls)
     addusdbec    :      7.88s CPU      7.97s WALL (   41999 calls)
 
     drhodvus     :      1.32s CPU      4.27s WALL (      76 calls)
 
      General routines
     calbec       :     90.27s CPU     92.38s WALL (  898687 calls)
     fft          :     12.54s CPU     12.73s WALL (   20742 calls)
     ffts         :      1.63s CPU      1.72s WALL (    3176 calls)
     fftw         :   2012.09s CPU   2053.54s WALL ( 3750982 calls)
     davcio       :     27.22s CPU    270.60s WALL (  207198 calls)
     write_rec    :      2.67s CPU     37.07s WALL (    1189 calls)
 
 
     PHONON       :  57m32.87s CPU      1h 4m WALL

 
   This run was terminated on:   1:31:25  23Jan2022            

=------------------------------------------------------------------------------=
   JOB DONE.
=------------------------------------------------------------------------------=
