
     Program PWSCF v.6.6 starts on  3Feb2022 at 15:28:19 

     This program is part of the open-source Quantum ESPRESSO suite
     for quantum simulation of materials; please cite
         "P. Giannozzi et al., J. Phys.:Condens. Matter 21 395502 (2009);
         "P. Giannozzi et al., J. Phys.:Condens. Matter 29 465901 (2017);
          URL http://www.quantum-espresso.org", 
     in publications or presentations arising from this work. More details at
     http://www.quantum-espresso.org/quote

     Parallel version (MPI), running on    24 processors

     MPI processes distributed on     1 nodes
     K-points division:     npool     =      24
     Fft bands division:     nmany     =       1
     Waiting for input...
     Reading input from standard input
Warning: card &CELL ignored
Warning: card PRESS_CONV_THR=0.1 ignored
Warning: card / ignored

     Current dimensions of program PWSCF are:
     Max number of different atomic species (ntypx) = 10
     Max number of k-points (npk) =  40000
     Max angular momentum in pseudopotentials (lmaxx) =  3

     Subspace diagonalization in iterative solution of the eigenvalue problem:
     a serial algorithm will be used

 
     G-vector sticks info
     --------------------
     sticks:   dense  smooth     PW     G-vecs:    dense   smooth      PW
     Sum        1045    1045    313                22419    22419    3695
 


     bravais-lattice index     =            2
     lattice parameter (alat)  =      10.7466  a.u.
     unit-cell volume          =     310.2790 (a.u.)^3
     number of atoms/cell      =            2
     number of atomic types    =            1
     number of electrons       =         8.00
     number of Kohn-Sham states=            8
     kinetic-energy cutoff     =      66.0000  Ry
     charge density cutoff     =     264.0000  Ry
     convergence threshold     =      1.0E-10
     mixing beta               =       0.7000
     number of iterations used =            8  plain     mixing
     Exchange-correlation= SLA PW PSX PSC
                           (   1   4  10   8   0   0   0)

     celldm(1)=  10.746593  celldm(2)=   0.000000  celldm(3)=   0.000000
     celldm(4)=   0.000000  celldm(5)=   0.000000  celldm(6)=   0.000000

     crystal axes: (cart. coord. in units of alat)
               a(1) = (  -0.500000   0.000000   0.500000 )  
               a(2) = (   0.000000   0.500000   0.500000 )  
               a(3) = (  -0.500000   0.500000   0.000000 )  

     reciprocal axes: (cart. coord. in units 2 pi/alat)
               b(1) = ( -1.000000 -1.000000  1.000000 )  
               b(2) = (  1.000000  1.000000  1.000000 )  
               b(3) = ( -1.000000  1.000000 -1.000000 )  


     PseudoPot. # 1 for Ge read from file:
     /scratch1/fanchem/Ge/pp/Ge.pbesol-n-kjpaw_psl.1.0.0.UPF
     MD5 check sum: 745875865497f3c829262459a163315c
     Pseudo is Projector augmented-wave + core cor, Zval =  4.0
     Generated using "atomic" code by A. Dal Corso v.6.6
     Shape of augmentation charge: PSQ
     Using radial grid of 1207 points,  4 beta functions with: 
                l(1) =   0
                l(2) =   0
                l(3) =   1
                l(4) =   1
     Q(r) pseudized with 0 coefficients 


     atomic species   valence    mass     pseudopotential
        Ge             4.00    72.64000     Ge( 1.00)

     48 Sym. Ops., with inversion, found (24 have fractional translation)


                                    s                        frac. trans.

      isym =  1     identity                                     

 cryst.   s( 1) = (     1          0          0      )
                  (     0          1          0      )
                  (     0          0          1      )

 cart.    s( 1) = (  1.0000000  0.0000000  0.0000000 )
                  (  0.0000000  1.0000000  0.0000000 )
                  (  0.0000000  0.0000000  1.0000000 )


      isym =  2     180 deg rotation - cart. axis [0,0,1]        

 cryst.   s( 2) = (     0          1         -1      )
                  (     1          0         -1      )
                  (     0          0         -1      )

 cart.    s( 2) = ( -1.0000000  0.0000000  0.0000000 )
                  (  0.0000000 -1.0000000  0.0000000 )
                  (  0.0000000  0.0000000  1.0000000 )


      isym =  3     180 deg rotation - cart. axis [0,1,0]        

 cryst.   s( 3) = (    -1          0          0      )
                  (    -1          0          1      )
                  (    -1          1          0      )

 cart.    s( 3) = ( -1.0000000  0.0000000  0.0000000 )
                  (  0.0000000  1.0000000  0.0000000 )
                  (  0.0000000  0.0000000 -1.0000000 )


      isym =  4     180 deg rotation - cart. axis [1,0,0]        

 cryst.   s( 4) = (     0         -1          1      )
                  (     0         -1          0      )
                  (     1         -1          0      )

 cart.    s( 4) = (  1.0000000  0.0000000  0.0000000 )
                  (  0.0000000 -1.0000000  0.0000000 )
                  (  0.0000000  0.0000000 -1.0000000 )


      isym =  5     180 deg rotation - cart. axis [1,1,0]        

 cryst.   s( 5) = (     0         -1          0      )    f =( -0.2500000 )
                  (    -1          0          0      )       ( -0.2500000 )
                  (     0          0         -1      )       ( -0.2500000 )

 cart.    s( 5) = (  0.0000000  1.0000000  0.0000000 )    f =(  0.2500000 )
                  (  1.0000000  0.0000000  0.0000000 )       ( -0.2500000 )
                  (  0.0000000  0.0000000 -1.0000000 )       ( -0.2500000 )


      isym =  6     180 deg rotation - cart. axis [1,-1,0]       

 cryst.   s( 6) = (    -1          0          1      )    f =( -0.2500000 )
                  (     0         -1          1      )       ( -0.2500000 )
                  (     0          0          1      )       ( -0.2500000 )

 cart.    s( 6) = (  0.0000000 -1.0000000  0.0000000 )    f =(  0.2500000 )
                  ( -1.0000000  0.0000000  0.0000000 )       ( -0.2500000 )
                  (  0.0000000  0.0000000 -1.0000000 )       ( -0.2500000 )


      isym =  7      90 deg rotation - cart. axis [0,0,-1]       

 cryst.   s( 7) = (     0          1          0      )    f =( -0.2500000 )
                  (     0          1         -1      )       ( -0.2500000 )
                  (    -1          1          0      )       ( -0.2500000 )

 cart.    s( 7) = (  0.0000000  1.0000000  0.0000000 )    f =(  0.2500000 )
                  ( -1.0000000  0.0000000  0.0000000 )       ( -0.2500000 )
                  (  0.0000000  0.0000000  1.0000000 )       ( -0.2500000 )


      isym =  8      90 deg rotation - cart. axis [0,0,1]        

 cryst.   s( 8) = (     1          0         -1      )    f =( -0.2500000 )
                  (     1          0          0      )       ( -0.2500000 )
                  (     1         -1          0      )       ( -0.2500000 )

 cart.    s( 8) = (  0.0000000 -1.0000000  0.0000000 )    f =(  0.2500000 )
                  (  1.0000000  0.0000000  0.0000000 )       ( -0.2500000 )
                  (  0.0000000  0.0000000  1.0000000 )       ( -0.2500000 )


      isym =  9     180 deg rotation - cart. axis [1,0,1]        

 cryst.   s( 9) = (    -1          0          0      )    f =( -0.2500000 )
                  (     0          0         -1      )       ( -0.2500000 )
                  (     0         -1          0      )       ( -0.2500000 )

 cart.    s( 9) = (  0.0000000  0.0000000  1.0000000 )    f =(  0.2500000 )
                  (  0.0000000 -1.0000000  0.0000000 )       ( -0.2500000 )
                  (  1.0000000  0.0000000  0.0000000 )       ( -0.2500000 )


      isym = 10     180 deg rotation - cart. axis [-1,0,1]       

 cryst.   s(10) = (     1          0          0      )    f =( -0.2500000 )
                  (     1         -1          0      )       ( -0.2500000 )
                  (     1          0         -1      )       ( -0.2500000 )

 cart.    s(10) = (  0.0000000  0.0000000 -1.0000000 )    f =(  0.2500000 )
                  (  0.0000000 -1.0000000  0.0000000 )       ( -0.2500000 )
                  ( -1.0000000  0.0000000  0.0000000 )       ( -0.2500000 )


      isym = 11      90 deg rotation - cart. axis [0,1,0]        

 cryst.   s(11) = (     0          1         -1      )    f =( -0.2500000 )
                  (    -1          1          0      )       ( -0.2500000 )
                  (     0          1          0      )       ( -0.2500000 )

 cart.    s(11) = (  0.0000000  0.0000000  1.0000000 )    f =(  0.2500000 )
                  (  0.0000000  1.0000000  0.0000000 )       ( -0.2500000 )
                  ( -1.0000000  0.0000000  0.0000000 )       ( -0.2500000 )


      isym = 12      90 deg rotation - cart. axis [0,-1,0]       

 cryst.   s(12) = (     0         -1          1      )    f =( -0.2500000 )
                  (     0          0          1      )       ( -0.2500000 )
                  (    -1          0          1      )       ( -0.2500000 )

 cart.    s(12) = (  0.0000000  0.0000000 -1.0000000 )    f =(  0.2500000 )
                  (  0.0000000  1.0000000  0.0000000 )       ( -0.2500000 )
                  (  1.0000000  0.0000000  0.0000000 )       ( -0.2500000 )


      isym = 13     180 deg rotation - cart. axis [0,1,1]        

 cryst.   s(13) = (    -1          1          0      )    f =( -0.2500000 )
                  (     0          1          0      )       ( -0.2500000 )
                  (     0          1         -1      )       ( -0.2500000 )

 cart.    s(13) = ( -1.0000000  0.0000000  0.0000000 )    f =(  0.2500000 )
                  (  0.0000000  0.0000000  1.0000000 )       ( -0.2500000 )
                  (  0.0000000  1.0000000  0.0000000 )       ( -0.2500000 )


      isym = 14     180 deg rotation - cart. axis [0,1,-1]       

 cryst.   s(14) = (     0          0         -1      )    f =( -0.2500000 )
                  (     0         -1          0      )       ( -0.2500000 )
                  (    -1          0          0      )       ( -0.2500000 )

 cart.    s(14) = ( -1.0000000  0.0000000  0.0000000 )    f =(  0.2500000 )
                  (  0.0000000  0.0000000 -1.0000000 )       ( -0.2500000 )
                  (  0.0000000 -1.0000000  0.0000000 )       ( -0.2500000 )


      isym = 15      90 deg rotation - cart. axis [-1,0,0]       

 cryst.   s(15) = (     0          0          1      )    f =( -0.2500000 )
                  (    -1          0          1      )       ( -0.2500000 )
                  (     0         -1          1      )       ( -0.2500000 )

 cart.    s(15) = (  1.0000000  0.0000000  0.0000000 )    f =(  0.2500000 )
                  (  0.0000000  0.0000000  1.0000000 )       ( -0.2500000 )
                  (  0.0000000 -1.0000000  0.0000000 )       ( -0.2500000 )


      isym = 16      90 deg rotation - cart. axis [1,0,0]        

 cryst.   s(16) = (     1         -1          0      )    f =( -0.2500000 )
                  (     1          0         -1      )       ( -0.2500000 )
                  (     1          0          0      )       ( -0.2500000 )

 cart.    s(16) = (  1.0000000  0.0000000  0.0000000 )    f =(  0.2500000 )
                  (  0.0000000  0.0000000 -1.0000000 )       ( -0.2500000 )
                  (  0.0000000  1.0000000  0.0000000 )       ( -0.2500000 )


      isym = 17     120 deg rotation - cart. axis [-1,-1,-1]     

 cryst.   s(17) = (    -1          0          1      )
                  (    -1          1          0      )
                  (    -1          0          0      )

 cart.    s(17) = (  0.0000000  1.0000000  0.0000000 )
                  (  0.0000000  0.0000000  1.0000000 )
                  (  1.0000000  0.0000000  0.0000000 )


      isym = 18     120 deg rotation - cart. axis [-1,1,1]       

 cryst.   s(18) = (     0          1          0      )
                  (     0          0          1      )
                  (     1          0          0      )

 cart.    s(18) = (  0.0000000 -1.0000000  0.0000000 )
                  (  0.0000000  0.0000000  1.0000000 )
                  ( -1.0000000  0.0000000  0.0000000 )


      isym = 19     120 deg rotation - cart. axis [1,1,-1]       

 cryst.   s(19) = (     1          0         -1      )
                  (     0          0         -1      )
                  (     0          1         -1      )

 cart.    s(19) = (  0.0000000  1.0000000  0.0000000 )
                  (  0.0000000  0.0000000 -1.0000000 )
                  ( -1.0000000  0.0000000  0.0000000 )


      isym = 20     120 deg rotation - cart. axis [1,-1,1]       

 cryst.   s(20) = (     0         -1          0      )
                  (     1         -1          0      )
                  (     0         -1          1      )

 cart.    s(20) = (  0.0000000 -1.0000000  0.0000000 )
                  (  0.0000000  0.0000000 -1.0000000 )
                  (  1.0000000  0.0000000  0.0000000 )


      isym = 21     120 deg rotation - cart. axis [1,1,1]        

 cryst.   s(21) = (     0          0         -1      )
                  (     0          1         -1      )
                  (     1          0         -1      )

 cart.    s(21) = (  0.0000000  0.0000000  1.0000000 )
                  (  1.0000000  0.0000000  0.0000000 )
                  (  0.0000000  1.0000000  0.0000000 )


      isym = 22     120 deg rotation - cart. axis [-1,1,-1]      

 cryst.   s(22) = (    -1          1          0      )
                  (    -1          0          0      )
                  (    -1          0          1      )

 cart.    s(22) = (  0.0000000  0.0000000  1.0000000 )
                  ( -1.0000000  0.0000000  0.0000000 )
                  (  0.0000000 -1.0000000  0.0000000 )


      isym = 23     120 deg rotation - cart. axis [1,-1,-1]      

 cryst.   s(23) = (     0          0          1      )
                  (     1          0          0      )
                  (     0          1          0      )

 cart.    s(23) = (  0.0000000  0.0000000 -1.0000000 )
                  ( -1.0000000  0.0000000  0.0000000 )
                  (  0.0000000  1.0000000  0.0000000 )


      isym = 24     120 deg rotation - cart. axis [-1,-1,1]      

 cryst.   s(24) = (     1         -1          0      )
                  (     0         -1          1      )
                  (     0         -1          0      )

 cart.    s(24) = (  0.0000000  0.0000000 -1.0000000 )
                  (  1.0000000  0.0000000  0.0000000 )
                  (  0.0000000 -1.0000000  0.0000000 )


      isym = 25     inversion                                    

 cryst.   s(25) = (    -1          0          0      )    f =( -0.2500000 )
                  (     0         -1          0      )       ( -0.2500000 )
                  (     0          0         -1      )       ( -0.2500000 )

 cart.    s(25) = ( -1.0000000  0.0000000  0.0000000 )    f =(  0.2500000 )
                  (  0.0000000 -1.0000000  0.0000000 )       ( -0.2500000 )
                  (  0.0000000  0.0000000 -1.0000000 )       ( -0.2500000 )


      isym = 26     inv. 180 deg rotation - cart. axis [0,0,1]   

 cryst.   s(26) = (     0         -1          1      )    f =( -0.2500000 )
                  (    -1          0          1      )       ( -0.2500000 )
                  (     0          0          1      )       ( -0.2500000 )

 cart.    s(26) = (  1.0000000  0.0000000  0.0000000 )    f =(  0.2500000 )
                  (  0.0000000  1.0000000  0.0000000 )       ( -0.2500000 )
                  (  0.0000000  0.0000000 -1.0000000 )       ( -0.2500000 )


      isym = 27     inv. 180 deg rotation - cart. axis [0,1,0]   

 cryst.   s(27) = (     1          0          0      )    f =( -0.2500000 )
                  (     1          0         -1      )       ( -0.2500000 )
                  (     1         -1          0      )       ( -0.2500000 )

 cart.    s(27) = (  1.0000000  0.0000000  0.0000000 )    f =(  0.2500000 )
                  (  0.0000000 -1.0000000  0.0000000 )       ( -0.2500000 )
                  (  0.0000000  0.0000000  1.0000000 )       ( -0.2500000 )


      isym = 28     inv. 180 deg rotation - cart. axis [1,0,0]   

 cryst.   s(28) = (     0          1         -1      )    f =( -0.2500000 )
                  (     0          1          0      )       ( -0.2500000 )
                  (    -1          1          0      )       ( -0.2500000 )

 cart.    s(28) = ( -1.0000000  0.0000000  0.0000000 )    f =(  0.2500000 )
                  (  0.0000000  1.0000000  0.0000000 )       ( -0.2500000 )
                  (  0.0000000  0.0000000  1.0000000 )       ( -0.2500000 )


      isym = 29     inv. 180 deg rotation - cart. axis [1,1,0]   

 cryst.   s(29) = (     0          1          0      )
                  (     1          0          0      )
                  (     0          0          1      )

 cart.    s(29) = (  0.0000000 -1.0000000  0.0000000 )
                  ( -1.0000000  0.0000000  0.0000000 )
                  (  0.0000000  0.0000000  1.0000000 )


      isym = 30     inv. 180 deg rotation - cart. axis [1,-1,0]  

 cryst.   s(30) = (     1          0         -1      )
                  (     0          1         -1      )
                  (     0          0         -1      )

 cart.    s(30) = (  0.0000000  1.0000000  0.0000000 )
                  (  1.0000000  0.0000000  0.0000000 )
                  (  0.0000000  0.0000000  1.0000000 )


      isym = 31     inv.  90 deg rotation - cart. axis [0,0,-1]  

 cryst.   s(31) = (     0         -1          0      )
                  (     0         -1          1      )
                  (     1         -1          0      )

 cart.    s(31) = (  0.0000000 -1.0000000  0.0000000 )
                  (  1.0000000  0.0000000  0.0000000 )
                  (  0.0000000  0.0000000 -1.0000000 )


      isym = 32     inv.  90 deg rotation - cart. axis [0,0,1]   

 cryst.   s(32) = (    -1          0          1      )
                  (    -1          0          0      )
                  (    -1          1          0      )

 cart.    s(32) = (  0.0000000  1.0000000  0.0000000 )
                  ( -1.0000000  0.0000000  0.0000000 )
                  (  0.0000000  0.0000000 -1.0000000 )


      isym = 33     inv. 180 deg rotation - cart. axis [1,0,1]   

 cryst.   s(33) = (     1          0          0      )
                  (     0          0          1      )
                  (     0          1          0      )

 cart.    s(33) = (  0.0000000  0.0000000 -1.0000000 )
                  (  0.0000000  1.0000000  0.0000000 )
                  ( -1.0000000  0.0000000  0.0000000 )


      isym = 34     inv. 180 deg rotation - cart. axis [-1,0,1]  

 cryst.   s(34) = (    -1          0          0      )
                  (    -1          1          0      )
                  (    -1          0          1      )

 cart.    s(34) = (  0.0000000  0.0000000  1.0000000 )
                  (  0.0000000  1.0000000  0.0000000 )
                  (  1.0000000  0.0000000  0.0000000 )


      isym = 35     inv.  90 deg rotation - cart. axis [0,1,0]   

 cryst.   s(35) = (     0         -1          1      )
                  (     1         -1          0      )
                  (     0         -1          0      )

 cart.    s(35) = (  0.0000000  0.0000000 -1.0000000 )
                  (  0.0000000 -1.0000000  0.0000000 )
                  (  1.0000000  0.0000000  0.0000000 )


      isym = 36     inv.  90 deg rotation - cart. axis [0,-1,0]  

 cryst.   s(36) = (     0          1         -1      )
                  (     0          0         -1      )
                  (     1          0         -1      )

 cart.    s(36) = (  0.0000000  0.0000000  1.0000000 )
                  (  0.0000000 -1.0000000  0.0000000 )
                  ( -1.0000000  0.0000000  0.0000000 )


      isym = 37     inv. 180 deg rotation - cart. axis [0,1,1]   

 cryst.   s(37) = (     1         -1          0      )
                  (     0         -1          0      )
                  (     0         -1          1      )

 cart.    s(37) = (  1.0000000  0.0000000  0.0000000 )
                  (  0.0000000  0.0000000 -1.0000000 )
                  (  0.0000000 -1.0000000  0.0000000 )


      isym = 38     inv. 180 deg rotation - cart. axis [0,1,-1]  

 cryst.   s(38) = (     0          0          1      )
                  (     0          1          0      )
                  (     1          0          0      )

 cart.    s(38) = (  1.0000000  0.0000000  0.0000000 )
                  (  0.0000000  0.0000000  1.0000000 )
                  (  0.0000000  1.0000000  0.0000000 )


      isym = 39     inv.  90 deg rotation - cart. axis [-1,0,0]  

 cryst.   s(39) = (     0          0         -1      )
                  (     1          0         -1      )
                  (     0          1         -1      )

 cart.    s(39) = ( -1.0000000  0.0000000  0.0000000 )
                  (  0.0000000  0.0000000 -1.0000000 )
                  (  0.0000000  1.0000000  0.0000000 )


      isym = 40     inv.  90 deg rotation - cart. axis [1,0,0]   

 cryst.   s(40) = (    -1          1          0      )
                  (    -1          0          1      )
                  (    -1          0          0      )

 cart.    s(40) = ( -1.0000000  0.0000000  0.0000000 )
                  (  0.0000000  0.0000000  1.0000000 )
                  (  0.0000000 -1.0000000  0.0000000 )


      isym = 41     inv. 120 deg rotation - cart. axis [-1,-1,-1]

 cryst.   s(41) = (     1          0         -1      )    f =( -0.2500000 )
                  (     1         -1          0      )       ( -0.2500000 )
                  (     1          0          0      )       ( -0.2500000 )

 cart.    s(41) = (  0.0000000 -1.0000000  0.0000000 )    f =(  0.2500000 )
                  (  0.0000000  0.0000000 -1.0000000 )       ( -0.2500000 )
                  ( -1.0000000  0.0000000  0.0000000 )       ( -0.2500000 )


      isym = 42     inv. 120 deg rotation - cart. axis [-1,1,1]  

 cryst.   s(42) = (     0         -1          0      )    f =( -0.2500000 )
                  (     0          0         -1      )       ( -0.2500000 )
                  (    -1          0          0      )       ( -0.2500000 )

 cart.    s(42) = (  0.0000000  1.0000000  0.0000000 )    f =(  0.2500000 )
                  (  0.0000000  0.0000000 -1.0000000 )       ( -0.2500000 )
                  (  1.0000000  0.0000000  0.0000000 )       ( -0.2500000 )


      isym = 43     inv. 120 deg rotation - cart. axis [1,1,-1]  

 cryst.   s(43) = (    -1          0          1      )    f =( -0.2500000 )
                  (     0          0          1      )       ( -0.2500000 )
                  (     0         -1          1      )       ( -0.2500000 )

 cart.    s(43) = (  0.0000000 -1.0000000  0.0000000 )    f =(  0.2500000 )
                  (  0.0000000  0.0000000  1.0000000 )       ( -0.2500000 )
                  (  1.0000000  0.0000000  0.0000000 )       ( -0.2500000 )


      isym = 44     inv. 120 deg rotation - cart. axis [1,-1,1]  

 cryst.   s(44) = (     0          1          0      )    f =( -0.2500000 )
                  (    -1          1          0      )       ( -0.2500000 )
                  (     0          1         -1      )       ( -0.2500000 )

 cart.    s(44) = (  0.0000000  1.0000000  0.0000000 )    f =(  0.2500000 )
                  (  0.0000000  0.0000000  1.0000000 )       ( -0.2500000 )
                  ( -1.0000000  0.0000000  0.0000000 )       ( -0.2500000 )


      isym = 45     inv. 120 deg rotation - cart. axis [1,1,1]   

 cryst.   s(45) = (     0          0          1      )    f =( -0.2500000 )
                  (     0         -1          1      )       ( -0.2500000 )
                  (    -1          0          1      )       ( -0.2500000 )

 cart.    s(45) = (  0.0000000  0.0000000 -1.0000000 )    f =(  0.2500000 )
                  ( -1.0000000  0.0000000  0.0000000 )       ( -0.2500000 )
                  (  0.0000000 -1.0000000  0.0000000 )       ( -0.2500000 )


      isym = 46     inv. 120 deg rotation - cart. axis [-1,1,-1] 

 cryst.   s(46) = (     1         -1          0      )    f =( -0.2500000 )
                  (     1          0          0      )       ( -0.2500000 )
                  (     1          0         -1      )       ( -0.2500000 )

 cart.    s(46) = (  0.0000000  0.0000000 -1.0000000 )    f =(  0.2500000 )
                  (  1.0000000  0.0000000  0.0000000 )       ( -0.2500000 )
                  (  0.0000000  1.0000000  0.0000000 )       ( -0.2500000 )


      isym = 47     inv. 120 deg rotation - cart. axis [1,-1,-1] 

 cryst.   s(47) = (     0          0         -1      )    f =( -0.2500000 )
                  (    -1          0          0      )       ( -0.2500000 )
                  (     0         -1          0      )       ( -0.2500000 )

 cart.    s(47) = (  0.0000000  0.0000000  1.0000000 )    f =(  0.2500000 )
                  (  1.0000000  0.0000000  0.0000000 )       ( -0.2500000 )
                  (  0.0000000 -1.0000000  0.0000000 )       ( -0.2500000 )


      isym = 48     inv. 120 deg rotation - cart. axis [-1,-1,1] 

 cryst.   s(48) = (    -1          1          0      )    f =( -0.2500000 )
                  (     0          1         -1      )       ( -0.2500000 )
                  (     0          1          0      )       ( -0.2500000 )

 cart.    s(48) = (  0.0000000  0.0000000  1.0000000 )    f =(  0.2500000 )
                  ( -1.0000000  0.0000000  0.0000000 )       ( -0.2500000 )
                  (  0.0000000  1.0000000  0.0000000 )       ( -0.2500000 )


     point group O_h (m-3m) 
     there are 10 classes
     the character table:

       E     8C3   3C2   6C4   6C2'  i     8S6   3s_h  6S4   6s_d 
A_1g   1.00  1.00  1.00  1.00  1.00  1.00  1.00  1.00  1.00  1.00
A_2g   1.00  1.00  1.00 -1.00 -1.00  1.00  1.00  1.00 -1.00 -1.00
E_g    2.00 -1.00  2.00  0.00  0.00  2.00 -1.00  2.00  0.00  0.00
T_1g   3.00  0.00 -1.00  1.00 -1.00  3.00  0.00 -1.00  1.00 -1.00
T_2g   3.00  0.00 -1.00 -1.00  1.00  3.00  0.00 -1.00 -1.00  1.00
A_1u   1.00  1.00  1.00  1.00  1.00 -1.00 -1.00 -1.00 -1.00 -1.00
A_2u   1.00  1.00  1.00 -1.00 -1.00 -1.00 -1.00 -1.00  1.00  1.00
E_u    2.00 -1.00  2.00  0.00  0.00 -2.00  1.00 -2.00  0.00  0.00
T_1u   3.00  0.00 -1.00  1.00 -1.00 -3.00  0.00  1.00 -1.00  1.00
T_2u   3.00  0.00 -1.00 -1.00  1.00 -3.00  0.00  1.00  1.00 -1.00

     the symmetry operations in each class and the name of the first element:

     E        1
          identity                                               
     8C3     17   19   20   18   24   21   22   23
          120 deg rotation - cart. axis [-1,-1,-1]               
     3C2      2    4    3
          180 deg rotation - cart. axis [0,0,1]                  
     6C4      7    8   15   16   12   11
           90 deg rotation - cart. axis [0,0,-1]                 
     6C2'     5    6   14   13   10    9
          180 deg rotation - cart. axis [1,1,0]                  
     i       25
          inversion                                              
     8S6     41   43   44   42   48   45   46   47
          inv. 120 deg rotation - cart. axis [-1,-1,-1]          
     3s_h    26   28   27
          inv. 180 deg rotation - cart. axis [0,0,1]             
     6S4     31   32   39   40   36   35
          inv.  90 deg rotation - cart. axis [0,0,-1]            
     6s_d    29   30   38   37   34   33
          inv. 180 deg rotation - cart. axis [1,1,0]             

   Cartesian axes

     site n.     atom                  positions (alat units)
         1           Ge  tau(   1) = (   0.0000000   0.0000000   0.0000000  )
         2           Ge  tau(   2) = (  -0.2500000   0.2500000   0.2500000  )

   Crystallographic axes

     site n.     atom                  positions (cryst. coord.)
         1           Ge  tau(   1) = (  0.0000000  0.0000000  0.0000000  )
         2           Ge  tau(   2) = (  0.2500000  0.2500000  0.2500000  )

     number of k points=   145  Gaussian smearing, width (Ry)=  0.0200
                       cart. coord. in units 2pi/alat
        k(    1) = (   0.0000000   0.0000000   0.0000000), wk =   0.0004883
        k(    2) = (  -0.0625000   0.0625000  -0.0625000), wk =   0.0039062
        k(    3) = (  -0.1250000   0.1250000  -0.1250000), wk =   0.0039062
        k(    4) = (  -0.1875000   0.1875000  -0.1875000), wk =   0.0039062
        k(    5) = (  -0.2500000   0.2500000  -0.2500000), wk =   0.0039062
        k(    6) = (  -0.3125000   0.3125000  -0.3125000), wk =   0.0039062
        k(    7) = (  -0.3750000   0.3750000  -0.3750000), wk =   0.0039062
        k(    8) = (  -0.4375000   0.4375000  -0.4375000), wk =   0.0039062
        k(    9) = (   0.5000000  -0.5000000   0.5000000), wk =   0.0019531
        k(   10) = (   0.0000000   0.1250000   0.0000000), wk =   0.0029297
        k(   11) = (  -0.0625000   0.1875000  -0.0625000), wk =   0.0117188
        k(   12) = (  -0.1250000   0.2500000  -0.1250000), wk =   0.0117188
        k(   13) = (  -0.1875000   0.3125000  -0.1875000), wk =   0.0117188
        k(   14) = (  -0.2500000   0.3750000  -0.2500000), wk =   0.0117188
        k(   15) = (  -0.3125000   0.4375000  -0.3125000), wk =   0.0117188
        k(   16) = (  -0.3750000   0.5000000  -0.3750000), wk =   0.0117188
        k(   17) = (   0.5625000  -0.4375000   0.5625000), wk =   0.0117188
        k(   18) = (   0.5000000  -0.3750000   0.5000000), wk =   0.0117188
        k(   19) = (   0.4375000  -0.3125000   0.4375000), wk =   0.0117188
        k(   20) = (   0.3750000  -0.2500000   0.3750000), wk =   0.0117188
        k(   21) = (   0.3125000  -0.1875000   0.3125000), wk =   0.0117188
        k(   22) = (   0.2500000  -0.1250000   0.2500000), wk =   0.0117188
        k(   23) = (   0.1875000  -0.0625000   0.1875000), wk =   0.0117188
        k(   24) = (   0.1250000   0.0000000   0.1250000), wk =   0.0058594
        k(   25) = (   0.0000000   0.2500000   0.0000000), wk =   0.0029297
        k(   26) = (  -0.0625000   0.3125000  -0.0625000), wk =   0.0117188
        k(   27) = (  -0.1250000   0.3750000  -0.1250000), wk =   0.0117188
        k(   28) = (  -0.1875000   0.4375000  -0.1875000), wk =   0.0117188
        k(   29) = (  -0.2500000   0.5000000  -0.2500000), wk =   0.0117188
        k(   30) = (  -0.3125000   0.5625000  -0.3125000), wk =   0.0117188
        k(   31) = (   0.6250000  -0.3750000   0.6250000), wk =   0.0117188
        k(   32) = (   0.5625000  -0.3125000   0.5625000), wk =   0.0117188
        k(   33) = (   0.5000000  -0.2500000   0.5000000), wk =   0.0117188
        k(   34) = (   0.4375000  -0.1875000   0.4375000), wk =   0.0117188
        k(   35) = (   0.3750000  -0.1250000   0.3750000), wk =   0.0117188
        k(   36) = (   0.3125000  -0.0625000   0.3125000), wk =   0.0117188
        k(   37) = (   0.2500000   0.0000000   0.2500000), wk =   0.0058594
        k(   38) = (   0.0000000   0.3750000   0.0000000), wk =   0.0029297
        k(   39) = (  -0.0625000   0.4375000  -0.0625000), wk =   0.0117188
        k(   40) = (  -0.1250000   0.5000000  -0.1250000), wk =   0.0117188
        k(   41) = (  -0.1875000   0.5625000  -0.1875000), wk =   0.0117188
        k(   42) = (  -0.2500000   0.6250000  -0.2500000), wk =   0.0117188
        k(   43) = (   0.6875000  -0.3125000   0.6875000), wk =   0.0117188
        k(   44) = (   0.6250000  -0.2500000   0.6250000), wk =   0.0117188
        k(   45) = (   0.5625000  -0.1875000   0.5625000), wk =   0.0117188
        k(   46) = (   0.5000000  -0.1250000   0.5000000), wk =   0.0117188
        k(   47) = (   0.4375000  -0.0625000   0.4375000), wk =   0.0117188
        k(   48) = (   0.3750000   0.0000000   0.3750000), wk =   0.0058594
        k(   49) = (   0.0000000   0.5000000   0.0000000), wk =   0.0029297
        k(   50) = (  -0.0625000   0.5625000  -0.0625000), wk =   0.0117188
        k(   51) = (  -0.1250000   0.6250000  -0.1250000), wk =   0.0117188
        k(   52) = (  -0.1875000   0.6875000  -0.1875000), wk =   0.0117188
        k(   53) = (   0.7500000  -0.2500000   0.7500000), wk =   0.0117188
        k(   54) = (   0.6875000  -0.1875000   0.6875000), wk =   0.0117188
        k(   55) = (   0.6250000  -0.1250000   0.6250000), wk =   0.0117188
        k(   56) = (   0.5625000  -0.0625000   0.5625000), wk =   0.0117188
        k(   57) = (   0.5000000   0.0000000   0.5000000), wk =   0.0058594
        k(   58) = (   0.0000000   0.6250000   0.0000000), wk =   0.0029297
        k(   59) = (  -0.0625000   0.6875000  -0.0625000), wk =   0.0117188
        k(   60) = (  -0.1250000   0.7500000  -0.1250000), wk =   0.0117188
        k(   61) = (   0.8125000  -0.1875000   0.8125000), wk =   0.0117188
        k(   62) = (   0.7500000  -0.1250000   0.7500000), wk =   0.0117188
        k(   63) = (   0.6875000  -0.0625000   0.6875000), wk =   0.0117188
        k(   64) = (   0.6250000   0.0000000   0.6250000), wk =   0.0058594
        k(   65) = (   0.0000000   0.7500000   0.0000000), wk =   0.0029297
        k(   66) = (  -0.0625000   0.8125000  -0.0625000), wk =   0.0117188
        k(   67) = (   0.8750000  -0.1250000   0.8750000), wk =   0.0117188
        k(   68) = (   0.8125000  -0.0625000   0.8125000), wk =   0.0117188
        k(   69) = (   0.7500000   0.0000000   0.7500000), wk =   0.0058594
        k(   70) = (   0.0000000   0.8750000   0.0000000), wk =   0.0029297
        k(   71) = (   0.9375000  -0.0625000   0.9375000), wk =   0.0117188
        k(   72) = (   0.8750000   0.0000000   0.8750000), wk =   0.0058594
        k(   73) = (   0.0000000  -1.0000000   0.0000000), wk =   0.0014648
        k(   74) = (  -0.1250000   0.2500000   0.0000000), wk =   0.0117188
        k(   75) = (  -0.1875000   0.3125000  -0.0625000), wk =   0.0234375
        k(   76) = (  -0.2500000   0.3750000  -0.1250000), wk =   0.0234375
        k(   77) = (  -0.3125000   0.4375000  -0.1875000), wk =   0.0234375
        k(   78) = (  -0.3750000   0.5000000  -0.2500000), wk =   0.0234375
        k(   79) = (   0.5625000  -0.4375000   0.6875000), wk =   0.0234375
        k(   80) = (   0.5000000  -0.3750000   0.6250000), wk =   0.0117188
        k(   81) = (  -0.1250000   0.3750000   0.0000000), wk =   0.0117188
        k(   82) = (  -0.1875000   0.4375000  -0.0625000), wk =   0.0234375
        k(   83) = (  -0.2500000   0.5000000  -0.1250000), wk =   0.0234375
        k(   84) = (  -0.3125000   0.5625000  -0.1875000), wk =   0.0234375
        k(   85) = (   0.6250000  -0.3750000   0.7500000), wk =   0.0234375
        k(   86) = (   0.5625000  -0.3125000   0.6875000), wk =   0.0234375
        k(   87) = (   0.5000000  -0.2500000   0.6250000), wk =   0.0234375
        k(   88) = (   0.4375000  -0.1875000   0.5625000), wk =   0.0234375
        k(   89) = (   0.3750000  -0.1250000   0.5000000), wk =   0.0234375
        k(   90) = (   0.3125000  -0.0625000   0.4375000), wk =   0.0234375
        k(   91) = (   0.2500000   0.0000000   0.3750000), wk =   0.0117188
        k(   92) = (  -0.1250000   0.5000000   0.0000000), wk =   0.0117188
        k(   93) = (  -0.1875000   0.5625000  -0.0625000), wk =   0.0234375
        k(   94) = (  -0.2500000   0.6250000  -0.1250000), wk =   0.0234375
        k(   95) = (   0.6875000  -0.3125000   0.8125000), wk =   0.0234375
        k(   96) = (   0.6250000  -0.2500000   0.7500000), wk =   0.0234375
        k(   97) = (   0.5625000  -0.1875000   0.6875000), wk =   0.0234375
        k(   98) = (   0.5000000  -0.1250000   0.6250000), wk =   0.0234375
        k(   99) = (   0.4375000  -0.0625000   0.5625000), wk =   0.0234375
        k(  100) = (   0.3750000   0.0000000   0.5000000), wk =   0.0117188
        k(  101) = (  -0.1250000   0.6250000   0.0000000), wk =   0.0117188
        k(  102) = (  -0.1875000   0.6875000  -0.0625000), wk =   0.0234375
        k(  103) = (   0.7500000  -0.2500000   0.8750000), wk =   0.0234375
        k(  104) = (   0.6875000  -0.1875000   0.8125000), wk =   0.0234375
        k(  105) = (   0.6250000  -0.1250000   0.7500000), wk =   0.0234375
        k(  106) = (   0.5625000  -0.0625000   0.6875000), wk =   0.0234375
        k(  107) = (   0.5000000   0.0000000   0.6250000), wk =   0.0117188
        k(  108) = (  -0.1250000   0.7500000   0.0000000), wk =   0.0117188
        k(  109) = (   0.8125000  -0.1875000   0.9375000), wk =   0.0234375
        k(  110) = (   0.7500000  -0.1250000   0.8750000), wk =   0.0234375
        k(  111) = (   0.6875000  -0.0625000   0.8125000), wk =   0.0234375
        k(  112) = (   0.6250000   0.0000000   0.7500000), wk =   0.0117188
        k(  113) = (   0.8750000  -0.1250000   1.0000000), wk =   0.0117188
        k(  114) = (   0.8125000  -0.0625000   0.9375000), wk =   0.0234375
        k(  115) = (   0.7500000   0.0000000   0.8750000), wk =   0.0117188
        k(  116) = (  -0.1250000  -1.0000000   0.0000000), wk =   0.0058594
        k(  117) = (  -0.2500000   0.5000000   0.0000000), wk =   0.0117188
        k(  118) = (  -0.3125000   0.5625000  -0.0625000), wk =   0.0234375
        k(  119) = (   0.6250000  -0.3750000   0.8750000), wk =   0.0234375
        k(  120) = (   0.5625000  -0.3125000   0.8125000), wk =   0.0234375
        k(  121) = (   0.5000000  -0.2500000   0.7500000), wk =   0.0117188
        k(  122) = (  -0.2500000   0.6250000   0.0000000), wk =   0.0117188
        k(  123) = (   0.6875000  -0.3125000   0.9375000), wk =   0.0234375
        k(  124) = (   0.6250000  -0.2500000   0.8750000), wk =   0.0234375
        k(  125) = (   0.5625000  -0.1875000   0.8125000), wk =   0.0234375
        k(  126) = (   0.5000000  -0.1250000   0.7500000), wk =   0.0234375
        k(  127) = (   0.4375000  -0.0625000   0.6875000), wk =   0.0234375
        k(  128) = (   0.3750000   0.0000000   0.6250000), wk =   0.0117188
        k(  129) = (   0.7500000  -0.2500000   1.0000000), wk =   0.0117188
        k(  130) = (   0.6875000  -0.1875000   0.9375000), wk =   0.0234375
        k(  131) = (   0.6250000  -0.1250000   0.8750000), wk =   0.0234375
        k(  132) = (   0.5625000  -0.0625000   0.8125000), wk =   0.0234375
        k(  133) = (   0.5000000   0.0000000   0.7500000), wk =   0.0117188
        k(  134) = (   0.7500000  -0.1250000   1.0000000), wk =   0.0117188
        k(  135) = (   0.6875000  -0.0625000   0.9375000), wk =   0.0234375
        k(  136) = (   0.6250000   0.0000000   0.8750000), wk =   0.0117188
        k(  137) = (  -0.2500000  -1.0000000   0.0000000), wk =   0.0058594
        k(  138) = (   0.6250000  -0.2500000   1.0000000), wk =   0.0117188
        k(  139) = (   0.5625000  -0.1875000   0.9375000), wk =   0.0234375
        k(  140) = (   0.5000000  -0.1250000   0.8750000), wk =   0.0117188
        k(  141) = (   0.6250000  -0.1250000   1.0000000), wk =   0.0117188
        k(  142) = (   0.5625000  -0.0625000   0.9375000), wk =   0.0234375
        k(  143) = (   0.5000000   0.0000000   0.8750000), wk =   0.0117188
        k(  144) = (  -0.3750000  -1.0000000   0.0000000), wk =   0.0058594
        k(  145) = (  -0.5000000  -1.0000000   0.0000000), wk =   0.0029297

                       cryst. coord.
        k(    1) = (   0.0000000   0.0000000   0.0000000), wk =   0.0004883
        k(    2) = (   0.0000000   0.0000000   0.0625000), wk =   0.0039062
        k(    3) = (   0.0000000   0.0000000   0.1250000), wk =   0.0039062
        k(    4) = (   0.0000000   0.0000000   0.1875000), wk =   0.0039062
        k(    5) = (   0.0000000   0.0000000   0.2500000), wk =   0.0039062
        k(    6) = (   0.0000000   0.0000000   0.3125000), wk =   0.0039062
        k(    7) = (   0.0000000   0.0000000   0.3750000), wk =   0.0039062
        k(    8) = (   0.0000000   0.0000000   0.4375000), wk =   0.0039062
        k(    9) = (   0.0000000   0.0000000  -0.5000000), wk =   0.0019531
        k(   10) = (   0.0000000   0.0625000   0.0625000), wk =   0.0029297
        k(   11) = (   0.0000000   0.0625000   0.1250000), wk =   0.0117188
        k(   12) = (   0.0000000   0.0625000   0.1875000), wk =   0.0117188
        k(   13) = (   0.0000000   0.0625000   0.2500000), wk =   0.0117188
        k(   14) = (   0.0000000   0.0625000   0.3125000), wk =   0.0117188
        k(   15) = (   0.0000000   0.0625000   0.3750000), wk =   0.0117188
        k(   16) = (   0.0000000   0.0625000   0.4375000), wk =   0.0117188
        k(   17) = (   0.0000000   0.0625000  -0.5000000), wk =   0.0117188
        k(   18) = (   0.0000000   0.0625000  -0.4375000), wk =   0.0117188
        k(   19) = (   0.0000000   0.0625000  -0.3750000), wk =   0.0117188
        k(   20) = (   0.0000000   0.0625000  -0.3125000), wk =   0.0117188
        k(   21) = (   0.0000000   0.0625000  -0.2500000), wk =   0.0117188
        k(   22) = (   0.0000000   0.0625000  -0.1875000), wk =   0.0117188
        k(   23) = (   0.0000000   0.0625000  -0.1250000), wk =   0.0117188
        k(   24) = (   0.0000000   0.0625000  -0.0625000), wk =   0.0058594
        k(   25) = (   0.0000000   0.1250000   0.1250000), wk =   0.0029297
        k(   26) = (   0.0000000   0.1250000   0.1875000), wk =   0.0117188
        k(   27) = (   0.0000000   0.1250000   0.2500000), wk =   0.0117188
        k(   28) = (   0.0000000   0.1250000   0.3125000), wk =   0.0117188
        k(   29) = (   0.0000000   0.1250000   0.3750000), wk =   0.0117188
        k(   30) = (   0.0000000   0.1250000   0.4375000), wk =   0.0117188
        k(   31) = (   0.0000000   0.1250000  -0.5000000), wk =   0.0117188
        k(   32) = (   0.0000000   0.1250000  -0.4375000), wk =   0.0117188
        k(   33) = (   0.0000000   0.1250000  -0.3750000), wk =   0.0117188
        k(   34) = (   0.0000000   0.1250000  -0.3125000), wk =   0.0117188
        k(   35) = (   0.0000000   0.1250000  -0.2500000), wk =   0.0117188
        k(   36) = (   0.0000000   0.1250000  -0.1875000), wk =   0.0117188
        k(   37) = (   0.0000000   0.1250000  -0.1250000), wk =   0.0058594
        k(   38) = (   0.0000000   0.1875000   0.1875000), wk =   0.0029297
        k(   39) = (   0.0000000   0.1875000   0.2500000), wk =   0.0117188
        k(   40) = (   0.0000000   0.1875000   0.3125000), wk =   0.0117188
        k(   41) = (   0.0000000   0.1875000   0.3750000), wk =   0.0117188
        k(   42) = (   0.0000000   0.1875000   0.4375000), wk =   0.0117188
        k(   43) = (   0.0000000   0.1875000  -0.5000000), wk =   0.0117188
        k(   44) = (   0.0000000   0.1875000  -0.4375000), wk =   0.0117188
        k(   45) = (   0.0000000   0.1875000  -0.3750000), wk =   0.0117188
        k(   46) = (   0.0000000   0.1875000  -0.3125000), wk =   0.0117188
        k(   47) = (   0.0000000   0.1875000  -0.2500000), wk =   0.0117188
        k(   48) = (   0.0000000   0.1875000  -0.1875000), wk =   0.0058594
        k(   49) = (   0.0000000   0.2500000   0.2500000), wk =   0.0029297
        k(   50) = (   0.0000000   0.2500000   0.3125000), wk =   0.0117188
        k(   51) = (   0.0000000   0.2500000   0.3750000), wk =   0.0117188
        k(   52) = (   0.0000000   0.2500000   0.4375000), wk =   0.0117188
        k(   53) = (   0.0000000   0.2500000  -0.5000000), wk =   0.0117188
        k(   54) = (   0.0000000   0.2500000  -0.4375000), wk =   0.0117188
        k(   55) = (   0.0000000   0.2500000  -0.3750000), wk =   0.0117188
        k(   56) = (   0.0000000   0.2500000  -0.3125000), wk =   0.0117188
        k(   57) = (   0.0000000   0.2500000  -0.2500000), wk =   0.0058594
        k(   58) = (   0.0000000   0.3125000   0.3125000), wk =   0.0029297
        k(   59) = (   0.0000000   0.3125000   0.3750000), wk =   0.0117188
        k(   60) = (   0.0000000   0.3125000   0.4375000), wk =   0.0117188
        k(   61) = (   0.0000000   0.3125000  -0.5000000), wk =   0.0117188
        k(   62) = (   0.0000000   0.3125000  -0.4375000), wk =   0.0117188
        k(   63) = (   0.0000000   0.3125000  -0.3750000), wk =   0.0117188
        k(   64) = (   0.0000000   0.3125000  -0.3125000), wk =   0.0058594
        k(   65) = (   0.0000000   0.3750000   0.3750000), wk =   0.0029297
        k(   66) = (   0.0000000   0.3750000   0.4375000), wk =   0.0117188
        k(   67) = (   0.0000000   0.3750000  -0.5000000), wk =   0.0117188
        k(   68) = (   0.0000000   0.3750000  -0.4375000), wk =   0.0117188
        k(   69) = (   0.0000000   0.3750000  -0.3750000), wk =   0.0058594
        k(   70) = (   0.0000000   0.4375000   0.4375000), wk =   0.0029297
        k(   71) = (   0.0000000   0.4375000  -0.5000000), wk =   0.0117188
        k(   72) = (   0.0000000   0.4375000  -0.4375000), wk =   0.0058594
        k(   73) = (   0.0000000  -0.5000000  -0.5000000), wk =   0.0014648
        k(   74) = (   0.0625000   0.1250000   0.1875000), wk =   0.0117188
        k(   75) = (   0.0625000   0.1250000   0.2500000), wk =   0.0234375
        k(   76) = (   0.0625000   0.1250000   0.3125000), wk =   0.0234375
        k(   77) = (   0.0625000   0.1250000   0.3750000), wk =   0.0234375
        k(   78) = (   0.0625000   0.1250000   0.4375000), wk =   0.0234375
        k(   79) = (   0.0625000   0.1250000  -0.5000000), wk =   0.0234375
        k(   80) = (   0.0625000   0.1250000  -0.4375000), wk =   0.0117188
        k(   81) = (   0.0625000   0.1875000   0.2500000), wk =   0.0117188
        k(   82) = (   0.0625000   0.1875000   0.3125000), wk =   0.0234375
        k(   83) = (   0.0625000   0.1875000   0.3750000), wk =   0.0234375
        k(   84) = (   0.0625000   0.1875000   0.4375000), wk =   0.0234375
        k(   85) = (   0.0625000   0.1875000  -0.5000000), wk =   0.0234375
        k(   86) = (   0.0625000   0.1875000  -0.4375000), wk =   0.0234375
        k(   87) = (   0.0625000   0.1875000  -0.3750000), wk =   0.0234375
        k(   88) = (   0.0625000   0.1875000  -0.3125000), wk =   0.0234375
        k(   89) = (   0.0625000   0.1875000  -0.2500000), wk =   0.0234375
        k(   90) = (   0.0625000   0.1875000  -0.1875000), wk =   0.0234375
        k(   91) = (   0.0625000   0.1875000  -0.1250000), wk =   0.0117188
        k(   92) = (   0.0625000   0.2500000   0.3125000), wk =   0.0117188
        k(   93) = (   0.0625000   0.2500000   0.3750000), wk =   0.0234375
        k(   94) = (   0.0625000   0.2500000   0.4375000), wk =   0.0234375
        k(   95) = (   0.0625000   0.2500000  -0.5000000), wk =   0.0234375
        k(   96) = (   0.0625000   0.2500000  -0.4375000), wk =   0.0234375
        k(   97) = (   0.0625000   0.2500000  -0.3750000), wk =   0.0234375
        k(   98) = (   0.0625000   0.2500000  -0.3125000), wk =   0.0234375
        k(   99) = (   0.0625000   0.2500000  -0.2500000), wk =   0.0234375
        k(  100) = (   0.0625000   0.2500000  -0.1875000), wk =   0.0117188
        k(  101) = (   0.0625000   0.3125000   0.3750000), wk =   0.0117188
        k(  102) = (   0.0625000   0.3125000   0.4375000), wk =   0.0234375
        k(  103) = (   0.0625000   0.3125000  -0.5000000), wk =   0.0234375
        k(  104) = (   0.0625000   0.3125000  -0.4375000), wk =   0.0234375
        k(  105) = (   0.0625000   0.3125000  -0.3750000), wk =   0.0234375
        k(  106) = (   0.0625000   0.3125000  -0.3125000), wk =   0.0234375
        k(  107) = (   0.0625000   0.3125000  -0.2500000), wk =   0.0117188
        k(  108) = (   0.0625000   0.3750000   0.4375000), wk =   0.0117188
        k(  109) = (   0.0625000   0.3750000  -0.5000000), wk =   0.0234375
        k(  110) = (   0.0625000   0.3750000  -0.4375000), wk =   0.0234375
        k(  111) = (   0.0625000   0.3750000  -0.3750000), wk =   0.0234375
        k(  112) = (   0.0625000   0.3750000  -0.3125000), wk =   0.0117188
        k(  113) = (   0.0625000   0.4375000  -0.5000000), wk =   0.0117188
        k(  114) = (   0.0625000   0.4375000  -0.4375000), wk =   0.0234375
        k(  115) = (   0.0625000   0.4375000  -0.3750000), wk =   0.0117188
        k(  116) = (   0.0625000  -0.5000000  -0.4375000), wk =   0.0058594
        k(  117) = (   0.1250000   0.2500000   0.3750000), wk =   0.0117188
        k(  118) = (   0.1250000   0.2500000   0.4375000), wk =   0.0234375
        k(  119) = (   0.1250000   0.2500000  -0.5000000), wk =   0.0234375
        k(  120) = (   0.1250000   0.2500000  -0.4375000), wk =   0.0234375
        k(  121) = (   0.1250000   0.2500000  -0.3750000), wk =   0.0117188
        k(  122) = (   0.1250000   0.3125000   0.4375000), wk =   0.0117188
        k(  123) = (   0.1250000   0.3125000  -0.5000000), wk =   0.0234375
        k(  124) = (   0.1250000   0.3125000  -0.4375000), wk =   0.0234375
        k(  125) = (   0.1250000   0.3125000  -0.3750000), wk =   0.0234375
        k(  126) = (   0.1250000   0.3125000  -0.3125000), wk =   0.0234375
        k(  127) = (   0.1250000   0.3125000  -0.2500000), wk =   0.0234375
        k(  128) = (   0.1250000   0.3125000  -0.1875000), wk =   0.0117188
        k(  129) = (   0.1250000   0.3750000  -0.5000000), wk =   0.0117188
        k(  130) = (   0.1250000   0.3750000  -0.4375000), wk =   0.0234375
        k(  131) = (   0.1250000   0.3750000  -0.3750000), wk =   0.0234375
        k(  132) = (   0.1250000   0.3750000  -0.3125000), wk =   0.0234375
        k(  133) = (   0.1250000   0.3750000  -0.2500000), wk =   0.0117188
        k(  134) = (   0.1250000   0.4375000  -0.4375000), wk =   0.0117188
        k(  135) = (   0.1250000   0.4375000  -0.3750000), wk =   0.0234375
        k(  136) = (   0.1250000   0.4375000  -0.3125000), wk =   0.0117188
        k(  137) = (   0.1250000  -0.5000000  -0.3750000), wk =   0.0058594
        k(  138) = (   0.1875000   0.3750000  -0.4375000), wk =   0.0117188
        k(  139) = (   0.1875000   0.3750000  -0.3750000), wk =   0.0234375
        k(  140) = (   0.1875000   0.3750000  -0.3125000), wk =   0.0117188
        k(  141) = (   0.1875000   0.4375000  -0.3750000), wk =   0.0117188
        k(  142) = (   0.1875000   0.4375000  -0.3125000), wk =   0.0234375
        k(  143) = (   0.1875000   0.4375000  -0.2500000), wk =   0.0117188
        k(  144) = (   0.1875000  -0.5000000  -0.3125000), wk =   0.0058594
        k(  145) = (   0.2500000  -0.5000000  -0.2500000), wk =   0.0029297

     Dense  grid:    22419 G-vectors     FFT dimensions: (  40,  40,  40)

     Dynamical RAM for                 wfc:       0.34 MB

     Dynamical RAM for     wfc (w. buffer):       2.74 MB

     Dynamical RAM for           str. fact:       0.34 MB

     Dynamical RAM for           local pot:       0.00 MB

     Dynamical RAM for          nlocal pot:       0.69 MB

     Dynamical RAM for                qrad:       0.37 MB

     Dynamical RAM for          rho,v,vnew:       2.49 MB

     Dynamical RAM for               rhoin:       0.83 MB

     Dynamical RAM for            rho*nmix:       5.47 MB

     Dynamical RAM for           G-vectors:       1.45 MB

     Dynamical RAM for          h,s,v(r/c):       0.01 MB

     Dynamical RAM for          <psi|beta>:       0.00 MB

     Dynamical RAM for                 psi:       0.69 MB

     Dynamical RAM for                hpsi:       0.69 MB

     Dynamical RAM for                spsi:       0.69 MB

     Dynamical RAM for      wfcinit/wfcrot:       0.69 MB

     Dynamical RAM for           addusdens:       0.97 MB

     Dynamical RAM for          addusforce:       0.84 MB

     Dynamical RAM for         addusstress:       0.88 MB

     Estimated static dynamical RAM per process >      17.52 MB

     Estimated max dynamical RAM per process >      19.59 MB

     Estimated total dynamical RAM >     470.14 MB

     Initial potential from superposition of free atoms

     starting charge    7.99858, renormalised to    8.00000
     Starting wfcs are    8 randomized atomic wfcs
     Checking if some PAW data can be deallocated... 

     total cpu time spent up to now is        0.7 secs

     Self-consistent Calculation

     iteration #  1     ecut=    66.00 Ry     beta= 0.70
     Davidson diagonalization with overlap
     ethr =  1.00E-02,  avg # of iterations =  3.3

     Threshold (ethr) on eigenvalues was too large:
     Diagonalizing with lowered threshold

     Davidson diagonalization with overlap
     ethr =  3.60E-04,  avg # of iterations =  2.0

     total cpu time spent up to now is        1.4 secs

     total energy              =    -322.02047288 Ry
     estimated scf accuracy    <       0.02943786 Ry

     iteration #  2     ecut=    66.00 Ry     beta= 0.70
     Davidson diagonalization with overlap
     ethr =  3.68E-04,  avg # of iterations =  1.0

     total cpu time spent up to now is        1.7 secs

     total energy              =    -322.02120445 Ry
     estimated scf accuracy    <       0.00133573 Ry

     iteration #  3     ecut=    66.00 Ry     beta= 0.70
     Davidson diagonalization with overlap
     ethr =  1.67E-05,  avg # of iterations =  3.0

     total cpu time spent up to now is        2.0 secs

     total energy              =    -322.02124753 Ry
     estimated scf accuracy    <       0.00001388 Ry

     iteration #  4     ecut=    66.00 Ry     beta= 0.70
     Davidson diagonalization with overlap
     ethr =  1.74E-07,  avg # of iterations =  2.8

     total cpu time spent up to now is        2.4 secs

     total energy              =    -322.02125060 Ry
     estimated scf accuracy    <       0.00000007 Ry

     iteration #  5     ecut=    66.00 Ry     beta= 0.70
     Davidson diagonalization with overlap
     ethr =  8.49E-10,  avg # of iterations =  3.1

     total cpu time spent up to now is        2.7 secs

     total energy              =    -322.02125068 Ry
     estimated scf accuracy    <          1.5E-09 Ry

     iteration #  6     ecut=    66.00 Ry     beta= 0.70
     Davidson diagonalization with overlap
     ethr =  1.93E-11,  avg # of iterations =  2.1

     total cpu time spent up to now is        3.1 secs

     End of self-consistent calculation

          k = 0.0000 0.0000 0.0000 (  2741 PWs)   bands (ev):

    -7.1382   5.4488   5.5037   5.5037   5.5037   8.0513   8.0513   8.0513

     occupation numbers 
     1.0000   0.7566   0.6591   0.6591   0.6591   0.0000   0.0000   0.0000

          k =-0.0625 0.0625-0.0625 (  2758 PWs)   bands (ev):

    -7.0914   4.3401   5.4080   5.4080   6.2916   8.1814   8.1814   8.2484

     occupation numbers 
     1.0000   1.0000   0.8180   0.8180   0.0001   0.0000   0.0000   0.0000

          k =-0.1250 0.1250-0.1250 (  2788 PWs)   bands (ev):

    -6.9519   3.1261   5.1775   5.1775   6.4979   8.4968   8.4968   8.9586

     occupation numbers 
     1.0000   1.0000   0.9824   0.9824   0.0000   0.0000   0.0000   0.0000

          k =-0.1875 0.1875-0.1875 (  2803 PWs)   bands (ev):

    -6.7231   1.9275   4.9044   4.9044   6.3455   8.8514   8.8514   9.9762

     occupation numbers 
     1.0000   1.0000   0.9998   0.9998   0.0000   0.0000   0.0000   0.0000

          k =-0.2500 0.2500-0.2500 (  2806 PWs)   bands (ev):

    -6.4122   0.7926   4.6465   4.6465   6.1147   9.1154   9.1154  11.0849

     occupation numbers 
     1.0000   1.0000   1.0000   1.0000   0.0028   0.0000   0.0000   0.0000

          k =-0.3125 0.3125-0.3125 (  2818 PWs)   bands (ev):

    -6.0344  -0.2415   4.4316   4.4316   5.9019   9.2317   9.2317  12.1927

     occupation numbers 
     1.0000   1.0000   1.0000   1.0000   0.0486   0.0000   0.0000   0.0000

          k =-0.3750 0.3750-0.3750 (  2815 PWs)   bands (ev):

    -5.6240  -1.1277   4.2727   4.2727   5.7391   9.2384   9.2384  12.7518

     occupation numbers 
     1.0000   1.0000   1.0000   1.0000   0.2080   0.0000   0.0000   0.0000

          k =-0.4375 0.4375-0.4375 (  2821 PWs)   bands (ev):

    -5.2613  -1.7785   4.1758   4.1758   5.6385   9.2086   9.2086  12.6750

     occupation numbers 
     1.0000   1.0000   1.0000   1.0000   0.3858   0.0000   0.0000   0.0000

          k = 0.5000-0.5000 0.5000 (  2824 PWs)   bands (ev):

    -5.1028  -2.0334   4.1433   4.1433   5.6046   9.1931   9.1931  12.6290

     occupation numbers 
     1.0000   1.0000   1.0000   1.0000   0.4546   0.0000   0.0000   0.0000

          k = 0.0000 0.1250 0.0000 (  2762 PWs)   bands (ev):

    -7.0757   4.2730   5.2215   5.2215   6.6576   7.8420   8.4173   8.4173

     occupation numbers 
     1.0000   1.0000   0.9697   0.9697   0.0000   0.0000   0.0000   0.0000

          k =-0.0625 0.1875-0.0625 (  2783 PWs)   bands (ev):

    -6.9669   3.3652   4.9452   5.0256   7.0224   7.8438   8.8005   8.9601

     occupation numbers 
     1.0000   1.0000   0.9995   0.9981   0.0000   0.0000   0.0000   0.0000

          k =-0.1250 0.2500-0.1250 (  2795 PWs)   bands (ev):

    -6.7674   2.2447   4.6593   4.7691   6.9490   8.1748   9.2003   9.7952

     occupation numbers 
     1.0000   1.0000   1.0000   1.0000   0.0000   0.0000   0.0000   0.0000

          k =-0.1875 0.3125-0.1875 (  2803 PWs)   bands (ev):

    -6.4828   1.1248   4.4087   4.4704   6.7300   8.5717   9.4949  10.6621

     occupation numbers 
     1.0000   1.0000   1.0000   1.0000   0.0000   0.0000   0.0000   0.0000

          k =-0.2500 0.3750-0.2500 (  2824 PWs)   bands (ev):

    -6.1249   0.0743   4.1871   4.2149   6.5056   8.8503   9.6145  11.4882

     occupation numbers 
     1.0000   1.0000   1.0000   1.0000   0.0000   0.0000   0.0000   0.0000

          k =-0.3125 0.4375-0.3125 (  2814 PWs)   bands (ev):

    -5.7194  -0.8561   3.9478   4.0878   6.3196   8.9767   9.5862  12.2780

     occupation numbers 
     1.0000   1.0000   1.0000   1.0000   0.0001   0.0000   0.0000   0.0000

          k =-0.3750 0.5000-0.3750 (  2823 PWs)   bands (ev):

    -5.3266  -1.5934   3.7663   4.0312   6.1892   9.0271   9.4897  12.7444

     occupation numbers 
     1.0000   1.0000   1.0000   1.0000   0.0008   0.0000   0.0000   0.0000

          k = 0.5625-0.4375 0.5625 (  2820 PWs)   bands (ev):

    -5.0789  -1.9987   3.6498   4.0451   6.1218   9.0763   9.3889  12.8281

     occupation numbers 
     1.0000   1.0000   1.0000   1.0000   0.0025   0.0000   0.0000   0.0000

          k = 0.5000-0.3750 0.5000 (  2816 PWs)   bands (ev):

    -5.1342  -1.9115   3.6028   4.1272   6.1203   9.1577   9.3129  12.8516

     occupation numbers 
     1.0000   1.0000   1.0000   1.0000   0.0026   0.0000   0.0000   0.0000

          k = 0.4375-0.3125 0.4375 (  2815 PWs)   bands (ev):

    -5.4505  -1.3745   3.6287   4.2730   6.1848   9.2569   9.2663  12.7897

     occupation numbers 
     1.0000   1.0000   1.0000   1.0000   0.0009   0.0000   0.0000   0.0000

          k = 0.3750-0.2500 0.3750 (  2803 PWs)   bands (ev):

    -5.8578  -0.5614   3.7300   4.4758   6.3114   9.1824   9.3555  12.2104

     occupation numbers 
     1.0000   1.0000   1.0000   1.0000   0.0001   0.0000   0.0000   0.0000

          k = 0.3125-0.1875 0.3125 (  2814 PWs)   bands (ev):

    -6.2517   0.4139   3.9082   4.7238   6.4899   9.0273   9.3257  11.3036

     occupation numbers 
     1.0000   1.0000   1.0000   1.0000   0.0000   0.0000   0.0000   0.0000

          k = 0.2500-0.1250 0.2500 (  2800 PWs)   bands (ev):

    -6.5870   1.4883   4.1642   4.9963   6.6923   8.7571   9.0589  10.4380

     occupation numbers 
     1.0000   1.0000   1.0000   0.9988   0.0000   0.0000   0.0000   0.0000

          k = 0.1875-0.0625 0.1875 (  2790 PWs)   bands (ev):

    -6.8440   2.6026   4.5012   5.2523   6.8357   8.4321   8.5963   9.6275

     occupation numbers 
     1.0000   1.0000   1.0000   0.9570   0.0000   0.0000   0.0000   0.0000

          k = 0.1250 0.0000 0.1250 (  2777 PWs)   bands (ev):

    -7.0136   3.6432   4.9378   5.4177   6.6991   8.1938   8.2453   8.8515

     occupation numbers 
     1.0000   1.0000   0.9996   0.8044   0.0000   0.0000   0.0000   0.0000

          k = 0.0000 0.2500 0.0000 (  2794 PWs)   bands (ev):

    -6.8887   3.0822   4.6452   4.6452   7.3792   7.7123   9.2415   9.2415

     occupation numbers 
     1.0000   1.0000   1.0000   1.0000   0.0000   0.0000   0.0000   0.0000

          k =-0.0625 0.3125-0.0625 (  2790 PWs)   bands (ev):

    -6.7190   2.2940   4.3478   4.3490   7.3185   7.9386   9.7026   9.8443

     occupation numbers 
     1.0000   1.0000   1.0000   1.0000   0.0000   0.0000   0.0000   0.0000

          k =-0.1250 0.3750-0.1250 (  2802 PWs)   bands (ev):

    -6.4620   1.3178   4.0036   4.0964   7.3723   8.1031  10.0647  10.3273

     occupation numbers 
     1.0000   1.0000   1.0000   1.0000   0.0000   0.0000   0.0000   0.0000

          k =-0.1875 0.4375-0.1875 (  2813 PWs)   bands (ev):

    -6.1267   0.3240   3.6475   3.9076   7.2496   8.4779  10.2362  10.6057

     occupation numbers 
     1.0000   1.0000   1.0000   1.0000   0.0000   0.0000   0.0000   0.0000

          k =-0.2500 0.5000-0.2500 (  2809 PWs)   bands (ev):

    -5.7323  -0.6030   3.3272   3.7924   7.0761   8.7817  10.2184  11.0676

     occupation numbers 
     1.0000   1.0000   1.0000   1.0000   0.0000   0.0000   0.0000   0.0000

          k =-0.3125 0.5625-0.3125 (  2813 PWs)   bands (ev):

    -5.3236  -1.3882   3.0659   3.7546   6.9330   8.9190  10.0907  11.8290

     occupation numbers 
     1.0000   1.0000   1.0000   1.0000   0.0000   0.0000   0.0000   0.0000

          k = 0.6250-0.3750 0.6250 (  2816 PWs)   bands (ev):

    -5.0057  -1.9114   2.8753   3.7941   6.8462   8.9957   9.9307  12.6705

     occupation numbers 
     1.0000   1.0000   1.0000   1.0000   0.0000   0.0000   0.0000   0.0000

          k = 0.5625-0.3125 0.5625 (  2826 PWs)   bands (ev):

    -4.9524  -1.9924   2.7631   3.9078   6.8234   9.0917   9.7793  13.1443

     occupation numbers 
     1.0000   1.0000   1.0000   1.0000   0.0000   0.0000   0.0000   0.0000

          k = 0.5000-0.2500 0.5000 (  2822 PWs)   bands (ev):

    -5.2049  -1.5899   2.7363   4.0894   6.8641   9.2282   9.6411  12.8536

     occupation numbers 
     1.0000   1.0000   1.0000   1.0000   0.0000   0.0000   0.0000   0.0000

          k = 0.4375-0.1875 0.4375 (  2812 PWs)   bands (ev):

    -5.6000  -0.8736   2.8035   4.3282   6.9612   9.3764   9.4858  11.9994

     occupation numbers 
     1.0000   1.0000   1.0000   1.0000   0.0000   0.0000   0.0000   0.0000

          k = 0.3750-0.1250 0.3750 (  2816 PWs)   bands (ev):

    -6.0055   0.0067   2.9782   4.6068   7.0963   9.2608   9.4208  11.1694

     occupation numbers 
     1.0000   1.0000   1.0000   1.0000   0.0000   0.0000   0.0000   0.0000

          k = 0.3125-0.0625 0.3125 (  2818 PWs)   bands (ev):

    -6.3623   0.9529   3.2873   4.8945   7.2199   8.9458   9.1553  10.6598

     occupation numbers 
     1.0000   1.0000   1.0000   0.9998   0.0000   0.0000   0.0000   0.0000

          k = 0.2500 0.0000 0.2500 (  2790 PWs)   bands (ev):

    -6.6457   1.8591   3.7830   5.1371   7.1901   8.6197   8.7412  10.2723

     occupation numbers 
     1.0000   1.0000   1.0000   0.9897   0.0000   0.0000   0.0000   0.0000

          k = 0.0000 0.3750 0.0000 (  2790 PWs)   bands (ev):

    -6.5788   1.9151   4.0432   4.0432   6.8827   8.3414  10.2468  10.2468

     occupation numbers 
     1.0000   1.0000   1.0000   1.0000   0.0000   0.0000   0.0000   0.0000

          k =-0.0625 0.4375-0.0625 (  2815 PWs)   bands (ev):

    -6.3499   1.2141   3.7052   3.7819   6.8613   8.3458  10.5796  10.7147

     occupation numbers 
     1.0000   1.0000   1.0000   1.0000   0.0000   0.0000   0.0000   0.0000

          k =-0.1250 0.5000-0.1250 (  2813 PWs)   bands (ev):

    -6.0390   0.3817   3.2818   3.5865   7.0531   8.4267  10.4968  10.9908

     occupation numbers 
     1.0000   1.0000   1.0000   1.0000   0.0000   0.0000   0.0000   0.0000

          k =-0.1875 0.5625-0.1875 (  2801 PWs)   bands (ev):

    -5.6606  -0.4643   2.8605   3.4679   7.1213   8.8464  10.3988  11.0355

     occupation numbers 
     1.0000   1.0000   1.0000   1.0000   0.0000   0.0000   0.0000   0.0000

          k =-0.2500 0.6250-0.2500 (  2813 PWs)   bands (ev):

    -5.2472  -1.2372   2.4979   3.4306   7.0837   9.3169  10.6352  10.9166

     occupation numbers 
     1.0000   1.0000   1.0000   1.0000   0.0000   0.0000   0.0000   0.0000

          k = 0.6875-0.3125 0.6875 (  2810 PWs)   bands (ev):

    -4.8789  -1.8276   2.2177   3.4754   7.0576   9.4811  10.7263  11.4326

     occupation numbers 
     1.0000   1.0000   1.0000   1.0000   0.0000   0.0000   0.0000   0.0000

          k = 0.6250-0.2500 0.6250 (  2806 PWs)   bands (ev):

    -4.7219  -2.0552   2.0324   3.5993   7.0857   9.5300  10.5198  12.4806

     occupation numbers 
     1.0000   1.0000   1.0000   1.0000   0.0000   0.0000   0.0000   0.0000

          k = 0.5625-0.1875 0.5625 (  2811 PWs)   bands (ev):

    -4.8960  -1.7984   1.9537   3.7958   7.1725   9.6045  10.3082  12.8105

     occupation numbers 
     1.0000   1.0000   1.0000   1.0000   0.0000   0.0000   0.0000   0.0000

          k = 0.5000-0.1250 0.5000 (  2818 PWs)   bands (ev):

    -5.2694  -1.2008   1.9994   4.0531   7.3022   9.7245  10.0621  11.8194

     occupation numbers 
     1.0000   1.0000   1.0000   1.0000   0.0000   0.0000   0.0000   0.0000

          k = 0.4375-0.0625 0.4375 (  2809 PWs)   bands (ev):

    -5.6811  -0.4565   2.2016   4.3503   7.4341   9.7321   9.8018  10.9240

     occupation numbers 
     1.0000   1.0000   1.0000   1.0000   0.0000   0.0000   0.0000   0.0000

          k = 0.3750 0.0000 0.3750 (  2820 PWs)   bands (ev):

    -6.0558   0.2958   2.6147   4.6513   7.4685   9.3226   9.5107  10.6201

     occupation numbers 
     1.0000   1.0000   1.0000   1.0000   0.0000   0.0000   0.0000   0.0000

          k = 0.0000 0.5000 0.0000 (  2826 PWs)   bands (ev):

    -6.1485   0.7768   3.5085   3.5085   6.4599   8.1961  11.3283  11.3283

     occupation numbers 
     1.0000   1.0000   1.0000   1.0000   0.0000   0.0000   0.0000   0.0000

          k =-0.0625 0.5625-0.0625 (  2823 PWs)   bands (ev):

    -5.8629   0.1440   3.1660   3.3001   6.4901   8.0154  11.4432  11.7704

     occupation numbers 
     1.0000   1.0000   1.0000   1.0000   0.0000   0.0000   0.0000   0.0000

          k =-0.1250 0.6250-0.1250 (  2807 PWs)   bands (ev):

    -5.5037  -0.5600   2.6899   3.1689   6.7100   8.1477  11.2247  11.9447

     occupation numbers 
     1.0000   1.0000   1.0000   1.0000   0.0000   0.0000   0.0000   0.0000

          k =-0.1875 0.6875-0.1875 (  2806 PWs)   bands (ev):

    -5.0942  -1.2529   2.2154   3.1209   6.8066   8.7714  11.0059  11.8832

     occupation numbers 
     1.0000   1.0000   1.0000   1.0000   0.0000   0.0000   0.0000   0.0000

          k = 0.7500-0.2500 0.7500 (  2807 PWs)   bands (ev):

    -4.6933  -1.8441   1.8208   3.1576   6.8419   9.6955  10.8808  11.6912

     occupation numbers 
     1.0000   1.0000   1.0000   1.0000   0.0000   0.0000   0.0000   0.0000

          k = 0.6875-0.1875 0.6875 (  2815 PWs)   bands (ev):

    -4.4465  -2.1711   1.5416   3.2769   6.9159  10.3987  11.2269  11.4427

     occupation numbers 
     1.0000   1.0000   1.0000   1.0000   0.0000   0.0000   0.0000   0.0000

          k = 0.6250-0.1250 0.6250 (  2811 PWs)   bands (ev):

    -4.5364  -2.0505   1.4020   3.4728   7.0524  10.4977  11.1528  12.2674

     occupation numbers 
     1.0000   1.0000   1.0000   1.0000   0.0000   0.0000   0.0000   0.0000

          k = 0.5625-0.0625 0.5625 (  2813 PWs)   bands (ev):

    -4.8823  -1.5823   1.4331   3.7336   7.2364  10.5589  10.7827  11.7084

     occupation numbers 
     1.0000   1.0000   1.0000   1.0000   0.0000   0.0000   0.0000   0.0000

          k = 0.5000 0.0000 0.5000 (  2810 PWs)   bands (ev):

    -5.2947  -1.0019   1.6833   4.0384   7.4113  10.2898  10.5551  10.7803

     occupation numbers 
     1.0000   1.0000   1.0000   1.0000   0.0000   0.0000   0.0000   0.0000

          k = 0.0000 0.6250 0.0000 (  2826 PWs)   bands (ev):

    -5.6019  -0.3270   3.0753   3.0753   6.1574   7.6053  12.4376  12.4377

     occupation numbers 
     1.0000   1.0000   1.0000   1.0000   0.0014   0.0000   0.0000   0.0000

          k =-0.0625 0.6875-0.0625 (  2815 PWs)   bands (ev):

    -5.2633  -0.9034   2.7523   2.9268   6.2450   7.4236  12.4999  12.8342

     occupation numbers 
     1.0000   1.0000   1.0000   1.0000   0.0003   0.0000   0.0000   0.0000

          k =-0.1250 0.7500-0.1250 (  2813 PWs)   bands (ev):

    -4.8638  -1.4994   2.2584   2.8618   6.4596   7.7010  12.2698  12.9056

     occupation numbers 
     1.0000   1.0000   1.0000   1.0000   0.0000   0.0000   0.0000   0.0000

          k = 0.8125-0.1875 0.8125 (  2818 PWs)   bands (ev):

    -4.4448  -2.0460   1.7656   2.8828   6.5528   8.5051  12.0413  12.7486

     occupation numbers 
     1.0000   1.0000   1.0000   1.0000   0.0000   0.0000   0.0000   0.0000

          k = 0.7500-0.1250 0.7500 (  2811 PWs)   bands (ev):

    -4.1275  -2.4165   1.3782   2.9887   6.6468   9.5989  11.8613  12.4619

     occupation numbers 
     1.0000   1.0000   1.0000   1.0000   0.0000   0.0000   0.0000   0.0000

          k = 0.6875-0.0625 0.6875 (  2812 PWs)   bands (ev):

    -4.1474  -2.3867   1.1578   3.1743   6.8035  10.8224  11.7515  12.0601

     occupation numbers 
     1.0000   1.0000   1.0000   1.0000   0.0000   0.0000   0.0000   0.0000

          k = 0.6250 0.0000 0.6250 (  2806 PWs)   bands (ev):

    -4.4746  -2.0179   1.1583   3.4291   7.0179  11.4948  11.5148  11.6790

     occupation numbers 
     1.0000   1.0000   1.0000   1.0000   0.0000   0.0000   0.0000   0.0000

          k = 0.0000 0.7500 0.0000 (  2814 PWs)   bands (ev):

    -4.9444  -1.3875   2.7587   2.7587   5.9982   6.9883  13.5316  13.5317

     occupation numbers 
     1.0000   1.0000   1.0000   1.0000   0.0154   0.0000   0.0000   0.0000

          k =-0.0625 0.8125-0.0625 (  2815 PWs)   bands (ev):

    -4.5581  -1.9133   2.4733   2.6733   6.1410   6.8927  13.5907  13.8537

     occupation numbers 
     1.0000   1.0000   1.0000   1.0000   0.0019   0.0000   0.0000   0.0000

          k = 0.8750-0.1250 0.8750 (  2819 PWs)   bands (ev):

    -4.1318  -2.4167   1.9980   2.6745   6.3144   7.3788  13.3586  13.7947

     occupation numbers 
     1.0000   1.0000   1.0000   1.0000   0.0001   0.0000   0.0000   0.0000

          k = 0.8125-0.0625 0.8125 (  2825 PWs)   bands (ev):

    -3.7671  -2.7961   1.5367   2.7619   6.4170   8.3454  13.0940  13.4608

     occupation numbers 
     1.0000   1.0000   1.0000   1.0000   0.0000   0.0000   0.0000   0.0000

          k = 0.7500 0.0000 0.7500 (  2810 PWs)   bands (ev):

    -3.7961  -2.7459   1.2246   2.9316   6.5763   9.5402  12.6838  12.8763

     occupation numbers 
     1.0000   1.0000   1.0000   1.0000   0.0000   0.0000   0.0000   0.0000

          k = 0.0000 0.8750 0.0000 (  2822 PWs)   bands (ev):

    -4.1837  -2.3927   2.5662   2.5662   5.9960   6.4930  14.5015  14.5015

     occupation numbers 
     1.0000   1.0000   1.0000   1.0000   0.0159   0.0000   0.0000   0.0000

          k = 0.9375-0.0625 0.9375 (  2813 PWs)   bands (ev):

    -3.7570  -2.8688   2.3330   2.5453   6.1668   6.5352  14.5009  14.6340

     occupation numbers 
     1.0000   1.0000   1.0000   1.0000   0.0012   0.0000   0.0000   0.0000

          k = 0.8750 0.0000 0.8750 (  2814 PWs)   bands (ev):

    -3.4282  -3.1833   1.9112   2.6116   6.2679   7.2642  14.0519  14.2500

     occupation numbers 
     1.0000   1.0000   1.0000   1.0000   0.0002   0.0000   0.0000   0.0000

          k = 0.0000-1.0000 0.0000 (  2794 PWs)   bands (ev):

    -3.3292  -3.3292   2.5017   2.5017   6.1597   6.1597  14.9685  14.9685

     occupation numbers 
     1.0000   1.0000   1.0000   1.0000   0.0014   0.0014   0.0000   0.0000

          k =-0.1250 0.2500 0.0000 (  2789 PWs)   bands (ev):

    -6.8278   2.6538   4.3603   4.9590   7.3821   7.7740   9.0748   9.6522

     occupation numbers 
     1.0000   1.0000   1.0000   0.9994   0.0000   0.0000   0.0000   0.0000

          k =-0.1875 0.3125-0.0625 (  2795 PWs)   bands (ev):

    -6.5995   1.7042   3.8847   4.7787   7.3618   8.0911   9.4623  10.2655

     occupation numbers 
     1.0000   1.0000   1.0000   1.0000   0.0000   0.0000   0.0000   0.0000

          k =-0.2500 0.3750-0.1250 (  2808 PWs)   bands (ev):

    -6.2892   0.6901   3.5439   4.5265   7.1746   8.5264   9.7747  10.7239

     occupation numbers 
     1.0000   1.0000   1.0000   1.0000   0.0000   0.0000   0.0000   0.0000

          k =-0.3125 0.4375-0.1875 (  2817 PWs)   bands (ev):

    -5.9117  -0.2813   3.3035   4.2784   6.9817   8.8268   9.8596  11.3049

     occupation numbers 
     1.0000   1.0000   1.0000   1.0000   0.0000   0.0000   0.0000   0.0000

          k =-0.3750 0.5000-0.2500 (  2811 PWs)   bands (ev):

    -5.5005  -1.1347   3.1445   4.0770   6.8277   8.9415   9.8163  12.0797

     occupation numbers 
     1.0000   1.0000   1.0000   1.0000   0.0000   0.0000   0.0000   0.0000

          k = 0.5625-0.4375 0.6875 (  2815 PWs)   bands (ev):

    -5.1352  -1.7711   3.0548   3.9467   6.7305   8.9593   9.7551  12.8076

     occupation numbers 
     1.0000   1.0000   1.0000   1.0000   0.0000   0.0000   0.0000   0.0000

          k = 0.5000-0.3750 0.6250 (  2822 PWs)   bands (ev):

    -4.9746  -2.0229   3.0260   3.9016   6.6974   8.9573   9.7293  13.0677

     occupation numbers 
     1.0000   1.0000   1.0000   1.0000   0.0000   0.0000   0.0000   0.0000

          k =-0.1250 0.3750 0.0000 (  2802 PWs)   bands (ev):

    -6.5200   1.6244   3.7616   4.2757   7.2887   8.1279  10.1202  10.2480

     occupation numbers 
     1.0000   1.0000   1.0000   1.0000   0.0000   0.0000   0.0000   0.0000

          k =-0.1875 0.4375-0.0625 (  2811 PWs)   bands (ev):

    -6.2361   0.7867   3.2925   4.0823   7.4594   8.2436  10.3006  10.5168

     occupation numbers 
     1.0000   1.0000   1.0000   1.0000   0.0000   0.0000   0.0000   0.0000

          k =-0.2500 0.5000-0.1250 (  2808 PWs)   bands (ev):

    -5.8786  -0.0985   2.9361   3.8594   7.4605   8.5990  10.2911  10.7607

     occupation numbers 
     1.0000   1.0000   1.0000   1.0000   0.0000   0.0000   0.0000   0.0000

          k =-0.3125 0.5625-0.1875 (  2810 PWs)   bands (ev):

    -5.4721  -0.9346   2.6666   3.6842   7.3606   8.8970  10.4661  10.9911

     occupation numbers 
     1.0000   1.0000   1.0000   1.0000   0.0000   0.0000   0.0000   0.0000

          k = 0.6250-0.3750 0.7500 (  2816 PWs)   bands (ev):

    -5.0756  -1.6228   2.4680   3.5936   7.2796   8.9698  10.5090  11.6873

     occupation numbers 
     1.0000   1.0000   1.0000   1.0000   0.0000   0.0000   0.0000   0.0000

          k = 0.5625-0.3125 0.6875 (  2809 PWs)   bands (ev):

    -4.8239  -2.0089   2.3372   3.5995   7.2515   8.9712  10.4395  12.6281

     occupation numbers 
     1.0000   1.0000   1.0000   1.0000   0.0000   0.0000   0.0000   0.0000

          k = 0.5000-0.2500 0.6250 (  2813 PWs)   bands (ev):

    -4.8841  -1.9188   2.2808   3.6986   7.2826   8.9878  10.3639  12.8426

     occupation numbers 
     1.0000   1.0000   1.0000   1.0000   0.0000   0.0000   0.0000   0.0000

          k = 0.4375-0.1875 0.5625 (  2812 PWs)   bands (ev):

    -5.2080  -1.4037   2.3118   3.8791   7.3686   9.0158  10.2919  11.9582

     occupation numbers 
     1.0000   1.0000   1.0000   1.0000   0.0000   0.0000   0.0000   0.0000

          k = 0.3750-0.1250 0.5000 (  2813 PWs)   bands (ev):

    -5.6181  -0.6568   2.4496   4.1217   7.4964   8.9576  10.2152  11.1209

     occupation numbers 
     1.0000   1.0000   1.0000   1.0000   0.0000   0.0000   0.0000   0.0000

          k = 0.3125-0.0625 0.4375 (  2812 PWs)   bands (ev):

    -6.0113   0.1825   2.7261   4.3951   7.6343   8.6526  10.1356  10.5557

     occupation numbers 
     1.0000   1.0000   1.0000   1.0000   0.0000   0.0000   0.0000   0.0000

          k = 0.2500 0.0000 0.3750 (  2811 PWs)   bands (ev):

    -6.3446   1.0031   3.1919   4.6442   7.6699   8.2276   9.8063  10.4305

     occupation numbers 
     1.0000   1.0000   1.0000   1.0000   0.0000   0.0000   0.0000   0.0000

          k =-0.1250 0.5000 0.0000 (  2820 PWs)   bands (ev):

    -6.0931   0.5907   3.2367   3.6402   6.8675   8.2806  10.6893  11.2451

     occupation numbers 
     1.0000   1.0000   1.0000   1.0000   0.0000   0.0000   0.0000   0.0000

          k =-0.1875 0.5625-0.0625 (  2810 PWs)   bands (ev):

    -5.7581  -0.1359   2.7826   3.4467   7.1096   8.3595  10.5023  11.6097

     occupation numbers 
     1.0000   1.0000   1.0000   1.0000   0.0000   0.0000   0.0000   0.0000

          k =-0.2500 0.6250-0.1250 (  2806 PWs)   bands (ev):

    -5.3629  -0.8806   2.3821   3.2865   7.2293   8.8608  10.3020  11.7064

     occupation numbers 
     1.0000   1.0000   1.0000   1.0000   0.0000   0.0000   0.0000   0.0000

          k = 0.6875-0.3125 0.8125 (  2807 PWs)   bands (ev):

    -4.9500  -1.5544   2.0511   3.2156   7.2458   9.4864  10.3654  11.6433

     occupation numbers 
     1.0000   1.0000   1.0000   1.0000   0.0000   0.0000   0.0000   0.0000

          k = 0.6250-0.2500 0.7500 (  2813 PWs)   bands (ev):

    -4.6263  -2.0216   1.8064   3.2445   7.2826   9.6067  11.0680  11.6226

     occupation numbers 
     1.0000   1.0000   1.0000   1.0000   0.0000   0.0000   0.0000   0.0000

          k = 0.5625-0.1875 0.6875 (  2807 PWs)   bands (ev):

    -4.5819  -2.0798   1.6649   3.3675   7.3756   9.5573  11.1999  12.3730

     occupation numbers 
     1.0000   1.0000   1.0000   1.0000   0.0000   0.0000   0.0000   0.0000

          k = 0.5000-0.1250 0.6250 (  2807 PWs)   bands (ev):

    -4.8532  -1.6971   1.6475   3.5722   7.5207   9.5192  10.9602  11.9954

     occupation numbers 
     1.0000   1.0000   1.0000   1.0000   0.0000   0.0000   0.0000   0.0000

          k = 0.4375-0.0625 0.5625 (  2806 PWs)   bands (ev):

    -5.2556  -1.0835   1.7868   3.8387   7.6870   9.4222  10.5512  11.2867

     occupation numbers 
     1.0000   1.0000   1.0000   1.0000   0.0000   0.0000   0.0000   0.0000

          k = 0.3750 0.0000 0.5000 (  2810 PWs)   bands (ev):

    -5.6593  -0.4200   2.1317   4.1331   7.7927   9.0441  10.3500  10.7317

     occupation numbers 
     1.0000   1.0000   1.0000   1.0000   0.0000   0.0000   0.0000   0.0000

          k =-0.1250 0.6250 0.0000 (  2820 PWs)   bands (ev):

    -5.5517  -0.4349   2.8199   3.1137   6.5583   7.8198  11.5159  12.3930

     occupation numbers 
     1.0000   1.0000   1.0000   1.0000   0.0000   0.0000   0.0000   0.0000

          k =-0.1875 0.6875-0.0625 (  2810 PWs)   bands (ev):

    -5.1722  -1.0609   2.3799   2.9482   6.8317   7.9680  11.2968  12.7103

     occupation numbers 
     1.0000   1.0000   1.0000   1.0000   0.0000   0.0000   0.0000   0.0000

          k = 0.7500-0.2500 0.8750 (  2806 PWs)   bands (ev):

    -4.7545  -1.6666   1.9307   2.8781   6.9586   8.6583  11.0487  12.6966

     occupation numbers 
     1.0000   1.0000   1.0000   1.0000   0.0000   0.0000   0.0000   0.0000

          k = 0.6875-0.1875 0.8125 (  2814 PWs)   bands (ev):

    -4.3788  -2.1523   1.5590   2.9114   7.0339   9.6742  10.8471  12.5050

     occupation numbers 
     1.0000   1.0000   1.0000   1.0000   0.0000   0.0000   0.0000   0.0000

          k = 0.6250-0.1250 0.7500 (  2818 PWs)   bands (ev):

    -4.2379  -2.3188   1.3169   3.0399   7.1573  10.5005  11.0489  12.1408

     occupation numbers 
     1.0000   1.0000   1.0000   1.0000   0.0000   0.0000   0.0000   0.0000

          k = 0.5625-0.0625 0.6875 (  2805 PWs)   bands (ev):

    -4.4564  -2.0525   1.2439   3.2520   7.3409  10.4559  11.4310  12.0675

     occupation numbers 
     1.0000   1.0000   1.0000   1.0000   0.0000   0.0000   0.0000   0.0000

          k = 0.5000 0.0000 0.6250 (  2797 PWs)   bands (ev):

    -4.8483  -1.5733   1.3854   3.5290   7.5528  10.1546  10.7313  11.8556

     occupation numbers 
     1.0000   1.0000   1.0000   1.0000   0.0000   0.0000   0.0000   0.0000

          k =-0.1250 0.7500 0.0000 (  2814 PWs)   bands (ev):

    -4.9020  -1.4394   2.5270   2.7175   6.3852   7.2588  12.5294  13.5051

     occupation numbers 
     1.0000   1.0000   1.0000   1.0000   0.0000   0.0000   0.0000   0.0000

          k = 0.8125-0.1875 0.9375 (  2815 PWs)   bands (ev):

    -4.4880  -1.9771   2.1004   2.6129   6.6613   7.5605  12.2964  13.7142

     occupation numbers 
     1.0000   1.0000   1.0000   1.0000   0.0000   0.0000   0.0000   0.0000

          k = 0.7500-0.1250 0.8750 (  2806 PWs)   bands (ev):

    -4.0780  -2.4475   1.6369   2.6387   6.7766   8.4342  12.0455  13.4523

     occupation numbers 
     1.0000   1.0000   1.0000   1.0000   0.0000   0.0000   0.0000   0.0000

          k = 0.6875-0.0625 0.8125 (  2819 PWs)   bands (ev):

    -3.8649  -2.6669   1.2874   2.7626   6.9071   9.5818  11.8224  12.7134

     occupation numbers 
     1.0000   1.0000   1.0000   1.0000   0.0000   0.0000   0.0000   0.0000

          k = 0.6250 0.0000 0.7500 (  2810 PWs)   bands (ev):

    -4.0687  -2.4433   1.1348   2.9725   7.1028  10.8432  11.5717  11.7073

     occupation numbers 
     1.0000   1.0000   1.0000   1.0000   0.0000   0.0000   0.0000   0.0000

          k = 0.8750-0.1250 1.0000 (  2814 PWs)   bands (ev):

    -4.1530  -2.4058   2.3664   2.4599   6.3628   6.8021  13.5687  14.3972

     occupation numbers 
     1.0000   1.0000   1.0000   1.0000   0.0000   0.0000   0.0000   0.0000

          k = 0.8125-0.0625 0.9375 (  2817 PWs)   bands (ev):

    -3.7228  -2.8611   1.9569   2.4460   6.5894   7.3231  13.3240  14.0799

     occupation numbers 
     1.0000   1.0000   1.0000   1.0000   0.0000   0.0000   0.0000   0.0000

          k = 0.7500 0.0000 0.8750 (  2825 PWs)   bands (ev):

    -3.5356  -3.0249   1.5356   2.5601   6.7135   8.3519  13.0316  13.0670

     occupation numbers 
     1.0000   1.0000   1.0000   1.0000   0.0000   0.0000   0.0000   0.0000

          k =-0.1250-1.0000 0.0000 (  2816 PWs)   bands (ev):

    -3.3161  -3.3161   2.3431   2.3431   6.5005   6.5005  14.4191  14.4191

     occupation numbers 
     1.0000   1.0000   1.0000   1.0000   0.0000   0.0000   0.0000   0.0000

          k =-0.2500 0.5000 0.0000 (  2807 PWs)   bands (ev):

    -5.9284   0.1394   2.6849   3.9194   7.8245   8.2761  10.1046  11.0236

     occupation numbers 
     1.0000   1.0000   1.0000   1.0000   0.0000   0.0000   0.0000   0.0000

          k =-0.3125 0.5625-0.0625 (  2804 PWs)   bands (ev):

    -5.5526  -0.5812   2.2620   3.6755   7.9723   8.6026  10.0034  11.4149

     occupation numbers 
     1.0000   1.0000   1.0000   1.0000   0.0000   0.0000   0.0000   0.0000

          k = 0.6250-0.3750 0.8750 (  2809 PWs)   bands (ev):

    -5.1395  -1.2891   2.0002   3.4478   7.9128   8.8789  10.3713  11.6141

     occupation numbers 
     1.0000   1.0000   1.0000   1.0000   0.0000   0.0000   0.0000   0.0000

          k = 0.5625-0.3125 0.8125 (  2810 PWs)   bands (ev):

    -4.7653  -1.8588   1.8609   3.2921   7.8624   8.8770  11.0476  11.8740

     occupation numbers 
     1.0000   1.0000   1.0000   1.0000   0.0000   0.0000   0.0000   0.0000

          k = 0.5000-0.2500 0.7500 (  2826 PWs)   bands (ev):

    -4.5965  -2.0955   1.8175   3.2372   7.8451   8.8523  11.2743  12.4335

     occupation numbers 
     1.0000   1.0000   1.0000   1.0000   0.0000   0.0000   0.0000   0.0000

          k =-0.2500 0.6250 0.0000 (  2805 PWs)   bands (ev):

    -5.4034  -0.7261   2.2986   3.2286   7.5156   8.3571  10.2702  12.2645

     occupation numbers 
     1.0000   1.0000   1.0000   1.0000   0.0000   0.0000   0.0000   0.0000

          k = 0.6875-0.3125 0.9375 (  2808 PWs)   bands (ev):

    -4.9964  -1.3422   1.9209   3.0002   7.7946   8.8133  10.0206  12.5993

     occupation numbers 
     1.0000   1.0000   1.0000   1.0000   0.0000   0.0000   0.0000   0.0000

          k = 0.6250-0.2500 0.8750 (  2805 PWs)   bands (ev):

    -4.5911  -1.9000   1.6494   2.8552   7.8739   9.4242  10.1158  12.5924

     occupation numbers 
     1.0000   1.0000   1.0000   1.0000   0.0000   0.0000   0.0000   0.0000

          k = 0.5625-0.1875 0.8125 (  2805 PWs)   bands (ev):

    -4.3279  -2.2341   1.4812   2.8308   7.9654   9.3865  11.0980  12.2012

     occupation numbers 
     1.0000   1.0000   1.0000   1.0000   0.0000   0.0000   0.0000   0.0000

          k = 0.5000-0.1250 0.7500 (  2804 PWs)   bands (ev):

    -4.4047  -2.1371   1.4274   2.9279   8.1046   9.2761  11.2633  12.1678

     occupation numbers 
     1.0000   1.0000   1.0000   1.0000   0.0000   0.0000   0.0000   0.0000

          k = 0.4375-0.0625 0.6875 (  2806 PWs)   bands (ev):

    -4.7502  -1.6912   1.5152   3.1281   8.2729   9.1603  10.2989  12.4353

     occupation numbers 
     1.0000   1.0000   1.0000   1.0000   0.0000   0.0000   0.0000   0.0000

          k = 0.3750 0.0000 0.6250 (  2805 PWs)   bands (ev):

    -5.1645  -1.1282   1.7830   3.3973   8.4042   8.7553   9.8705  12.0732

     occupation numbers 
     1.0000   1.0000   1.0000   1.0000   0.0000   0.0000   0.0000   0.0000

          k = 0.7500-0.2500 1.0000 (  2804 PWs)   bands (ev):

    -4.7784  -1.5928   2.0513   2.6617   7.3280   7.9837  11.0542  13.4091

     occupation numbers 
     1.0000   1.0000   1.0000   1.0000   0.0000   0.0000   0.0000   0.0000

          k = 0.6875-0.1875 0.9375 (  2810 PWs)   bands (ev):

    -4.3581  -2.1057   1.7125   2.4827   7.6123   8.6171  10.7796  13.4132

     occupation numbers 
     1.0000   1.0000   1.0000   1.0000   0.0000   0.0000   0.0000   0.0000

          k = 0.6250-0.1250 0.8750 (  2808 PWs)   bands (ev):

    -4.0195  -2.4856   1.4175   2.4694   7.7362   9.6863  10.5513  12.5648

     occupation numbers 
     1.0000   1.0000   1.0000   1.0000   0.0000   0.0000   0.0000   0.0000

          k = 0.5625-0.0625 0.8125 (  2803 PWs)   bands (ev):

    -4.0137  -2.4867   1.2488   2.5936   7.9036  10.2807  11.0042  11.3991

     occupation numbers 
     1.0000   1.0000   1.0000   1.0000   0.0000   0.0000   0.0000   0.0000

          k = 0.5000 0.0000 0.7500 (  2806 PWs)   bands (ev):

    -4.3398  -2.1297   1.2671   2.8245   8.1166   9.9864  10.4402  12.2561

     occupation numbers 
     1.0000   1.0000   1.0000   1.0000   0.0000   0.0000   0.0000   0.0000

          k = 0.7500-0.1250 1.0000 (  2814 PWs)   bands (ev):

    -4.0661  -2.4515   1.9553   2.2554   7.2774   7.6151  12.0399  13.8535

     occupation numbers 
     1.0000   1.0000   1.0000   1.0000   0.0000   0.0000   0.0000   0.0000

          k = 0.6875-0.0625 0.9375 (  2814 PWs)   bands (ev):

    -3.6712  -2.8525   1.6265   2.1937   7.5167   8.4546  11.7759  12.8198

     occupation numbers 
     1.0000   1.0000   1.0000   1.0000   0.0000   0.0000   0.0000   0.0000

          k = 0.6250 0.0000 0.8750 (  2809 PWs)   bands (ev):

    -3.6555  -2.8500   1.3345   2.3381   7.6818   9.6451  11.4921  11.6132

     occupation numbers 
     1.0000   1.0000   1.0000   1.0000   0.0000   0.0000   0.0000   0.0000

          k =-0.2500-1.0000 0.0000 (  2826 PWs)   bands (ev):

    -3.2835  -3.2835   2.0207   2.0207   7.3727   7.3727  13.0739  13.0739

     occupation numbers 
     1.0000   1.0000   1.0000   1.0000   0.0000   0.0000   0.0000   0.0000

          k = 0.6250-0.2500 1.0000 (  2805 PWs)   bands (ev):

    -4.5847  -1.8335   1.5918   2.6912   8.5686   8.8693   9.7579  13.1416

     occupation numbers 
     1.0000   1.0000   1.0000   1.0000   0.0000   0.0000   0.0000   0.0000

          k = 0.5625-0.1875 0.9375 (  2807 PWs)   bands (ev):

    -4.1896  -2.2864   1.4065   2.4667   8.7647   9.2728  10.0322  12.4029

     occupation numbers 
     1.0000   1.0000   1.0000   1.0000   0.0000   0.0000   0.0000   0.0000

          k = 0.5000-0.1250 0.8750 (  2804 PWs)   bands (ev):

    -3.9937  -2.5039   1.3484   2.3855   8.7988   9.2441  11.1077  11.2170

     occupation numbers 
     1.0000   1.0000   1.0000   1.0000   0.0000   0.0000   0.0000   0.0000

          k = 0.6250-0.1250 1.0000 (  2805 PWs)   bands (ev):

    -3.9387  -2.5422   1.5762   2.1271   8.5024   8.7389  10.4929  12.5997

     occupation numbers 
     1.0000   1.0000   1.0000   1.0000   0.0000   0.0000   0.0000   0.0000

          k = 0.5625-0.0625 0.9375 (  2803 PWs)   bands (ev):

    -3.6321  -2.8484   1.4459   2.0107   8.7458   9.7596  10.2723  11.3071

     occupation numbers 
     1.0000   1.0000   1.0000   1.0000   0.0000   0.0000   0.0000   0.0000

          k = 0.5000 0.0000 0.8750 (  2800 PWs)   bands (ev):

    -3.7939  -2.6803   1.3510   2.1585   8.9313   9.9107  10.1825  11.1205

     occupation numbers 
     1.0000   1.0000   1.0000   1.0000   0.0000   0.0000   0.0000   0.0000

          k =-0.3750-1.0000 0.0000 (  2806 PWs)   bands (ev):

    -3.2498  -3.2498   1.7518   1.7518   8.5637   8.5637  11.5150  11.5150

     occupation numbers 
     1.0000   1.0000   1.0000   1.0000   0.0000   0.0000   0.0000   0.0000

          k =-0.5000-1.0000 0.0000 (  2780 PWs)   bands (ev):

    -3.2354  -3.2354   1.6510   1.6510   9.7989   9.7989  10.1501  10.1501

     occupation numbers 
     1.0000   1.0000   1.0000   1.0000   0.0000   0.0000   0.0000   0.0000

     the Fermi energy is     5.5826 ev

!    total energy              =    -322.02125068 Ry

     total all-electron energy =     -8389.902633 Ry
     estimated scf accuracy    <          2.9E-11 Ry
     smearing contrib. (-TS)   =      -0.00015561 Ry
     internal energy E=F+TS    =    -322.02109507 Ry

     The total energy is F=E-TS. E is the sum of the following terms:
     one-electron contribution =       5.43061993 Ry
     hartree contribution      =       1.15589221 Ry
     xc contribution           =     -13.17098481 Ry
     ewald contribution        =     -16.04020297 Ry
     one-center paw contrib.   =    -299.39641943 Ry
      -> PAW hartree energy AE =       4.38562591 Ry
      -> PAW hartree energy PS =      -4.38108038 Ry
      -> PAW xc energy AE      =    -155.84117961 Ry
      -> PAW xc energy PS      =       6.13842437 Ry
      -> total E_H with PAW    =       1.16043774 Ry
      -> total E_XC with PAW   =    -162.87374005 Ry

     convergence has been achieved in   6 iterations

     Forces acting on atoms (cartesian axes, Ry/au):

     atom    1 type  1   force =     0.00000000    0.00000000    0.00000000
     atom    2 type  1   force =     0.00000000    0.00000000    0.00000000
     The non-local contrib.  to forces
     atom    1 type  1   force =    -0.00000000   -0.00000000   -0.00000000
     atom    2 type  1   force =    -0.00000000   -0.00000000    0.00000000
     The ionic contribution  to forces
     atom    1 type  1   force =     0.00000000   -0.00000000   -0.00000000
     atom    2 type  1   force =    -0.00000000    0.00000000    0.00000000
     The local contribution  to forces
     atom    1 type  1   force =    -0.00000000    0.00000000    0.00000000
     atom    2 type  1   force =     0.00000000   -0.00000000   -0.00000000
     The core correction contribution to forces
     atom    1 type  1   force =    -0.00000000   -0.00000000    0.00000000
     atom    2 type  1   force =    -0.00000000    0.00000000    0.00000000
     The Hubbard contrib.    to forces
     atom    1 type  1   force =     0.00000000    0.00000000    0.00000000
     atom    2 type  1   force =     0.00000000    0.00000000    0.00000000
     The SCF correction term to forces
     atom    1 type  1   force =     0.00000000    0.00000000   -0.00000000
     atom    2 type  1   force =    -0.00000000   -0.00000000    0.00000000

     Total force =     0.000000     Total SCF correction =     0.000000


     Computing stress (Cartesian axis) and pressure

          total   stress  (Ry/bohr**3)                   (kbar)     P=        0.07
   0.00000050   0.00000000   0.00000000            0.07        0.00        0.00
   0.00000000   0.00000050   0.00000000            0.00        0.07        0.00
   0.00000000  -0.00000000   0.00000050            0.00       -0.00        0.07

     kinetic stress (kbar)   1849.46      0.00     -0.00
                                0.00   1849.46     -0.00
                               -0.00     -0.00   1849.46

     local   stress (kbar)    840.79      0.00      0.00
                                0.00    840.79      0.00
                                0.00      0.00    840.79

     nonloc. stress (kbar)    774.84      0.00      0.00
                                0.00    774.84     -0.00
                                0.00     -0.00    774.84

     hartree stress (kbar)    182.67      0.00     -0.00
                                0.00    182.67     -0.00
                               -0.00     -0.00    182.67

     exc-cor stress (kbar)   2967.18     -0.00     -0.00
                               -0.00   2967.18      0.00
                               -0.00      0.00   2967.18

     corecor stress (kbar)  -4079.96     -0.00     -0.00
                               -0.00  -4079.96      0.00
                               -0.00      0.00  -4079.96

     ewald   stress (kbar)  -2534.92     -0.00     -0.00
                               -0.00  -2534.92      0.00
                               -0.00      0.00  -2534.92

     hubbard stress (kbar)      0.00      0.00      0.00
                                0.00      0.00      0.00
                                0.00      0.00      0.00

     DFT-D   stress (kbar)      0.00      0.00      0.00
                                0.00      0.00      0.00
                                0.00      0.00      0.00

     XDM     stress (kbar)      0.00      0.00      0.00
                                0.00      0.00      0.00
                                0.00      0.00      0.00

     dft-nl  stress (kbar)      0.00      0.00      0.00
                                0.00      0.00      0.00
                                0.00      0.00      0.00

     TS-vdW  stress (kbar)      0.00      0.00      0.00
                                0.00      0.00      0.00
                                0.00      0.00      0.00



     Writing output data file ./ge.save/
 
     init_run     :      0.28s CPU      0.33s WALL (       1 calls)
     electrons    :      2.32s CPU      2.38s WALL (       1 calls)
     forces       :      0.05s CPU      0.05s WALL (       1 calls)
     stress       :      0.11s CPU      0.11s WALL (       1 calls)

     Called by init_run:
     wfcinit      :      0.08s CPU      0.09s WALL (       1 calls)
     wfcinit:atom :      0.00s CPU      0.00s WALL (       7 calls)
     wfcinit:wfcr :      0.07s CPU      0.08s WALL (       7 calls)
     potinit      :      0.06s CPU      0.07s WALL (       1 calls)
     hinit0       :      0.12s CPU      0.13s WALL (       1 calls)

     Called by electrons:
     c_bands      :      1.67s CPU      1.70s WALL (       7 calls)
     sum_band     :      0.35s CPU      0.35s WALL (       7 calls)
     v_of_rho     :      0.20s CPU      0.21s WALL (       7 calls)
     v_h          :      0.01s CPU      0.01s WALL (       7 calls)
     v_xc         :      0.25s CPU      0.26s WALL (       9 calls)
     newd         :      0.01s CPU      0.01s WALL (       7 calls)
     PAW_pot      :      0.08s CPU      0.08s WALL (       7 calls)
     mix_rho      :      0.03s CPU      0.03s WALL (       7 calls)

     Called by c_bands:
     init_us_2    :      0.05s CPU      0.05s WALL (     119 calls)
     cegterg      :      1.39s CPU      1.40s WALL (      49 calls)

     Called by sum_band:
     sum_band:wei :      0.00s CPU      0.00s WALL (       7 calls)
     sum_band:loo :      0.29s CPU      0.29s WALL (       7 calls)
     sum_band:buf :      0.00s CPU      0.00s WALL (      49 calls)
     sum_band:ini :      0.02s CPU      0.02s WALL (      49 calls)
     sum_band:cal :      0.01s CPU      0.01s WALL (      49 calls)
     sum_band:bec :      0.00s CPU      0.00s WALL (      49 calls)
     addusdens    :      0.01s CPU      0.01s WALL (       7 calls)
     addusd:skk   :      0.00s CPU      0.00s WALL (       7 calls)
     addusd:dgemm :      0.00s CPU      0.00s WALL (       7 calls)
     addusd:qvan2 :      0.00s CPU      0.00s WALL (       7 calls)

     Called by *egterg:
     cdiaghg      :      0.01s CPU      0.01s WALL (     153 calls)
     cegterg:over :      0.02s CPU      0.02s WALL (     111 calls)
     cegterg:upda :      0.02s CPU      0.02s WALL (     111 calls)
     cegterg:last :      0.02s CPU      0.02s WALL (      89 calls)
     h_psi        :      1.33s CPU      1.35s WALL (     167 calls)
     s_psi        :      0.02s CPU      0.02s WALL (     167 calls)
     g_psi        :      0.01s CPU      0.01s WALL (     111 calls)

     Called by h_psi:
     h_psi:calbec :      0.03s CPU      0.03s WALL (     167 calls)
     vloc_psi     :      1.28s CPU      1.29s WALL (     167 calls)
     add_vuspsi   :      0.02s CPU      0.02s WALL (     167 calls)

     General routines
     calbec       :      0.04s CPU      0.04s WALL (     251 calls)
     fft          :      0.06s CPU      0.06s WALL (     103 calls)
     ffts         :      0.00s CPU      0.00s WALL (       7 calls)
     fftw         :      1.31s CPU      1.32s WALL (    2436 calls)
 
     Parallel routines

     PAW routines
     PAW_pot      :      0.08s CPU      0.08s WALL (       7 calls)
     PAW_symme    :      0.00s CPU      0.00s WALL (      14 calls)
 
     PWSCF        :      3.11s CPU      3.33s WALL

 
   This run was terminated on:  15:28:22   3Feb2022            

=------------------------------------------------------------------------------=
   JOB DONE.
=------------------------------------------------------------------------------=
