# epsilon and Z* of atoms 1 3
   4.48046987    0.00000000    0.00000000    0.00000000    4.48046987    0.00000000    0.00000000    0.00000000    4.71204652 
   2.51393809    0.00000000    0.00000000    0.00000000    2.51393809    0.00000000    0.00000000    0.00000000    2.67812324 
  -2.51393809   -0.00000000    0.00000000    0.00000000   -2.51393809    0.00000000    0.00000000    0.00000000   -2.67812324 
