     16.23272327    -0.00000000       0.00000000
     -0.00000000    16.23272327      -0.00000000
      0.00000000     0.00000000       7.22486533
     -1.86766348     0.00000000      -0.00000000
      0.00000000    -1.86766348       0.00000000
     -0.00000000     0.00000000      -0.17775174 
      0.93383173    -0.00000000       0.00000000
     -0.00000000     0.93383173       0.00000000
      0.00000000     0.00000000       0.08887586
      0.93383173    -0.00000000       0.00000000
     -0.00000000     0.93383173       0.00000000
      0.00000000     0.00000000       0.08887586
